Title: simulation of the symmetrical ota designed with the sekv model by c. enz
Date: Fri Jul 25 15:16:46  2025
Plotname: Noise Spectral Density Curves
Flags: real
No. Variables: 33
No. Points: 329
Variables:
	0	frequency	frequency grid=3
	1	inoise_spectrum	voltage-density
	2	onoise_n1a	voltage-density
	3	onoise_n1a_flicker	voltage-density
	4	onoise_n1a_thermal	voltage-density
	5	onoise_n1b	voltage-density
	6	onoise_n1b_flicker	voltage-density
	7	onoise_n1b_thermal	voltage-density
	8	onoise_n2a	voltage-density
	9	onoise_n2a_flicker	voltage-density
	10	onoise_n2a_thermal	voltage-density
	11	onoise_n2b	voltage-density
	12	onoise_n2b_flicker	voltage-density
	13	onoise_n2b_thermal	voltage-density
	14	onoise_n2c	voltage-density
	15	onoise_n2c_flicker	voltage-density
	16	onoise_n2c_thermal	voltage-density
	17	onoise_n2d	voltage-density
	18	onoise_n2d_flicker	voltage-density
	19	onoise_n2d_thermal	voltage-density
	20	onoise_n3a	voltage-density
	21	onoise_n3a_flicker	voltage-density
	22	onoise_n3a_thermal	voltage-density
	23	onoise_n3b	voltage-density
	24	onoise_n3b_flicker	voltage-density
	25	onoise_n3b_thermal	voltage-density
	26	onoise_n4	voltage-density
	27	onoise_n4_flicker	voltage-density
	28	onoise_n4_thermal	voltage-density
	29	onoise_n7	voltage-density
	30	onoise_n7_flicker	voltage-density
	31	onoise_n7_thermal	voltage-density
	32	onoise_spectrum	voltage-density
Values:
 0	1.000000000000000e+00
	3.841014107839687e-05
	2.895054953835632e+00
	2.895049392855419e+00
	5.674385932310336e-03
	2.895053604788600e+00
	2.895048053972162e+00
	5.669196720849539e-03
	1.700718777540730e+00
	1.700716456041376e+00
	2.810058664453802e-03
	1.696094052456254e+00
	1.696091739374292e+00
	2.801143296442691e-03
	1.724900372534599e+00
	1.724898020435511e+00
	2.848555362738452e-03
	1.720364638058220e+00
	1.720362271119911e+00
	2.853767392553311e-03
	6.650424816559859e-01
	6.650352669672397e-01
	3.097756763299745e-03
	6.657030051233683e-01
	6.656957644507737e-01
	3.104870783692459e-03
	1.172619157584108e-02
	1.172619083443168e-02
	4.169870122529753e-06
	1.916639905003091e-03
	1.916639361000943e-03
	1.444060994462202e-06
	5.417784292594117e+00

 1	1.057767560283176e+00
	3.734657932434275e-05
	2.812015774584647e+00
	2.812010061081615e+00
	5.668587889786832e-03
	2.812014463662328e+00
	2.812008760601837e+00
	5.663403980621129e-03
	1.651936820984233e+00
	1.651934435812320e+00
	2.807187368806237e-03
	1.647444747423512e+00
	1.647442370899858e+00
	2.798281110447424e-03
	1.675424811743312e+00
	1.675422395132397e+00
	2.845644731470023e-03
	1.671019177558651e+00
	1.671016745701516e+00
	2.850851435674174e-03
	6.459673282421916e-01
	6.459599156757355e-01
	3.094591500017455e-03
	6.466089072291675e-01
	6.466014679662084e-01
	3.101698251360580e-03
	1.138984671254797e-02
	1.138984595080364e-02
	4.165609382324192e-06
	1.861664536025057e-03
	1.861663977102358e-03
	1.442585464398660e-06
	5.262385405172941e+00

 2	1.118872211587422e+00
	3.631246741703316e-05
	2.731033279040296e+00
	2.731027409529993e+00
	5.662121641778132e-03
	2.731032005285163e+00
	2.731026146502535e+00
	5.656943645979736e-03
	1.604363076667064e+00
	1.604360626367962e+00
	2.803985165702655e-03
	1.600000369166787e+00
	1.599997927752083e+00
	2.795089066853850e-03
	1.627174642104041e+00
	1.627172159507492e+00
	2.842398659443604e-03
	1.622895885965905e+00
	1.622893387706839e+00
	2.847599424277787e-03
	6.273646289325913e-01
	6.273570139679936e-01
	3.091061450468292e-03
	6.279877326813245e-01
	6.279800902912895e-01
	3.098160095027576e-03
	1.106183228609076e-02
	1.106183150354696e-02
	4.160857605708703e-06
	1.808050772573759e-03
	1.808050198389641e-03
	1.440939884308865e-06
	5.110835380310618e+00

 3	1.183506729519469e+00
	3.530698990194076e-05
	2.652031322840810e+00
	2.652025293862948e+00
	5.654912901455074e-03
	2.652030085330596e+00
	2.652024067371865e+00
	5.649741498031320e-03
	1.557952813070129e+00
	1.557950296199292e+00
	2.800415266960088e-03
	1.553716307804315e+00
	1.553713800059256e+00
	2.791530494195489e-03
	1.580104496084502e+00
	1.580101946038735e+00
	2.838779854492587e-03
	1.575949515044949e+00
	1.575946948911133e+00
	2.843973997963696e-03
	6.092168922257173e-01
	6.092090703739157e-01
	3.087126060038914e-03
	6.098219726061392e-01
	6.098141225837995e-01
	3.094215666946149e-03
	1.074183987927475e-02
	1.074183907547012e-02
	4.155560202387433e-06
	1.755748204026931e-03
	1.755747614242886e-03
	1.439105349114172e-06
	4.962991722020981e+00

 4	1.251875025862529e+00
	3.432935390434285e-05
	2.574934621259625e+00
	2.574928429395680e+00
	5.646879788595695e-03
	2.574933419106951e+00
	2.574927238559843e+00
	5.641715731433156e-03
	1.512661803675869e+00
	1.512659218806187e+00
	2.796437124009939e-03
	1.508548457082643e+00
	1.508545881585292e+00
	2.787564972550674e-03
	1.534169518334302e+00
	1.534166899393395e+00
	2.834747212548941e-03
	1.530135327395758e+00
	1.530132691932150e+00
	2.839933977455355e-03
	5.915068240721111e-01
	5.914987908982496e-01
	3.082740628736331e-03
	5.920943157779666e-01
	5.920862536724947e-01
	3.089820164469459e-03
	1.042956455684673e-02
	1.042956373132550e-02
	4.149657001989221e-06
	1.704706988887213e-03
	1.704706383168823e-03
	1.437061021312980e-06
	4.818713543031880e+00

 5	1.324192791886045e+00
	3.337878850409559e-05
	2.499668702328509e+00
	2.499662344221919e+00
	5.637932216129416e-03
	2.499667534680555e+00
	2.499661188194643e+00
	5.632776341499074e-03
	1.468446299430572e+00
	1.468443645160802e+00
	2.792006124103583e-03
	1.464453186913815e+00
	1.464450542268010e+00
	2.783148030711977e-03
	1.489325337755701e+00
	1.489322648499942e+00
	2.830255509686932e-03
	1.485409068597502e+00
	1.485406362375431e+00
	2.835434056080364e-03
	5.742173171032495e-01
	5.742090682528821e-01
	3.077855976290557e-03
	5.747876378374346e-01
	5.747793592787025e-01
	3.084924294384679e-03
	1.012470467565909e-02
	1.012470382797374e-02
	4.143081803273811e-06
	1.654877823741105e-03
	1.654877201760010e-03
	1.434783974856997e-06
	4.677861477060054e+00

 6	1.400688178817868e+00
	3.245454412772084e-05
	2.426159875178700e+00
	2.426153347557926e+00
	5.627971268136404e-03
	2.426158741216881e+00
	2.426152225526604e+00
	5.622824502767595e-03
	1.425263010146639e+00
	1.425260285111031e+00
	2.787073282286364e-03
	1.421387324828213e+00
	1.421384609673155e+00
	2.778230839137478e-03
	1.445528048641451e+00
	1.445525287687088e+00
	2.825255089877296e-03
	1.441726948395978e+00
	1.441724170022964e+00
	2.830424486953336e-03
	5.573314433559783e-01
	5.573229745849895e-01
	3.072418102592450e-03
	5.578849940086438e-01
	5.578764947372520e-01
	3.079473932571034e-03
	9.826961756446487e-03
	9.826960886160847e-03
	4.135761917048752e-06
	1.606211922317644e-03
	1.606211283753802e-03
	1.432249036873720e-06
	4.540297619564821e+00

 7	1.481602517625661e+00
	3.155589195732599e-05
	2.354335216925017e+00
	2.354328516629749e+00
	5.616888581396144e-03
	2.354334115864674e+00
	2.354327427815497e+00
	5.611751951116085e-03
	1.383069096798109e+00
	1.383066299677346e+00
	2.781584935129261e-03
	1.379308148291031e+00
	1.379305361312187e+00
	2.772759904654105e-03
	1.402734202860776e+00
	1.402731368871101e+00
	2.819691554523143e-03
	1.399045632910120e+00
	1.399042781041021e+00
	2.824850771943731e-03
	5.408324512562458e-01
	5.408237584648511e-01
	3.066367850069144e-03
	5.413696160798943e-01
	5.413608919812937e-01
	3.073409785599873e-03
	9.536040430704249e-03
	9.536039537396965e-03
	4.127617711691544e-06
	1.558661006784989e-03
	1.558660351329239e-03
	1.429428630259348e-06
	4.405885503202966e+00

 8	1.567191080378307e+00
	3.068212335589048e-05
	2.284122581911216e+00
	2.284115705921999e+00
	5.604565746224107e-03
	2.284121513001314e+00
	2.284114649579303e+00
	5.599440385145381e-03
	1.341822176952478e+00
	1.341819306486045e+00
	2.775482444012355e-03
	1.338173390119332e+00
	1.338170530060758e+00
	2.766676774682499e-03
	1.360900815368423e+00
	1.360897907066307e+00
	2.813505461678530e-03
	1.357322250126562e+00
	1.357319323476193e+00
	2.818653360344092e-03
	5.247037677392395e-01
	5.246948470104276e-01
	3.059640576589235e-03
	5.252249145259164e-01
	5.252159616689895e-01
	3.066667062888679e-03
	9.251648478153450e-03
	9.251647561421949e-03
	4.118562172850969e-06
	1.512177313896971e-03
	1.512176641253930e-03
	1.426292621220094e-06
	4.274490115130274e+00

 9	1.657723885589316e+00
	2.983254930846650e-05
	2.215450637638702e+00
	2.215443583110272e+00
	5.590873746607448e-03
	2.215449600161514e+00
	2.215442558526604e+00
	5.585760906827443e-03
	1.301480345877903e+00
	1.301477400878000e+00
	2.768701917869884e-03
	1.297941259531851e+00
	1.297938325210055e+00
	2.759917760861692e-03
	1.319985385611983e+00
	1.319982401793971e+00
	2.806632044995227e-03
	1.316514411250639e+00
	1.316511408607950e+00
	2.811767367302564e-03
	5.089290064987896e-01
	5.089198541415635e-01
	3.052165849822048e-03
	5.094344867654536e-01
	5.094253014459118e-01
	3.059175170358425e-03
	8.973496972286468e-03
	8.973496031751399e-03
	4.108500492028054e-06
	1.466713618759592e-03
	1.466712928650917e-03
	1.422808176774049e-06
	4.145977964238070e+00

 10	1.753486550082957e+00
	2.900649987885236e-05
	2.148248932190995e+00
	2.148241696489555e+00
	5.575672464565100e-03
	2.148247925461761e+00
	2.148240702984967e+00
	5.570573526318743e-03
	1.262002216152827e+00
	1.261999195519937e+00
	2.761173967740394e-03
	1.258570481650917e+00
	1.258567471970365e+00
	2.752413694377991e-03
	1.279945937704704e+00
	1.279942877256782e+00
	2.799000964910303e-03
	1.276580250773556e+00
	1.276577171017508e+00
	2.804122324555224e-03
	4.934919834715326e-01
	4.934825960692821e-01
	3.043867176658248e-03
	4.939821326607939e-01
	4.939727114497234e-01
	3.050857439232814e-03
	8.701300553479464e-03
	8.701299588789672e-03
	4.097329702350712e-06
	1.422223279484812e-03
	1.422222571652846e-03
	1.418939638629457e-06
	4.020217207330675e+00

 11	1.854781190070612e+00
	2.820332368131075e-05
	2.082447998409189e+00
	2.082440579153873e+00
	5.558810279192596e-03
	2.082447021775740e+00
	2.082439616080551e+00
	5.553726761371749e-03
	1.223346978865282e+00
	1.223343881605473e+00
	2.752823508206468e-03
	1.220020358535331e+00
	1.220017272505698e+00
	2.744089728034676e-03
	1.240741082494949e+00
	1.240737944410088e+00
	2.790536107365662e-03
	1.237478488378616e+00
	1.237475330495824e+00
	2.795641978777333e-03
	4.783767407630802e-01
	4.783671152273764e-01
	3.034661784320683e-03
	4.788518784676848e-01
	4.788422182655349e-01
	3.041630906646419e-03
	8.434777850949414e-03
	8.434776861787468e-03
	4.084938383921578e-06
	1.378660306158288e-03
	1.378659580370118e-03
	1.414648421144097e-06
	3.897077844078379e+00

 12	1.961927374280117e+00
	2.742238736691499e-05
	2.017979500422737e+00
	2.017971895531431e+00
	5.540123796927777e-03
	2.017978553265053e+00
	2.017970962273157e+00
	5.535057367847294e-03
	1.185474489694125e+00
	1.185471314938183e+00
	2.743569623817423e-03
	1.182250855027534e+00
	1.182247691782757e+00
	2.734865203098486e-03
	1.202330104871389e+00
	1.202326888268918e+00
	2.781155448400775e-03
	1.199168516016809e+00
	1.199165279121048e+00
	2.786244155928315e-03
	4.635675803036383e-01
	4.635577139336770e-01
	3.024460473111218e-03
	4.640280105243651e-01
	4.640181086206061e-01
	3.031406168053368e-03
	8.173652076306291e-03
	8.173651062394580e-03
	4.071206465611982e-06
	1.335979457846948e-03
	1.335978713898884e-03
	1.409892942677000e-06
	3.776431991233851e+00

 13	2.075263132145056e+00
	2.666307512411830e-05
	1.954776428335157e+00
	1.954768636074768e+00
	5.519437756034835e-03
	1.954775510064846e+00
	1.954767732046320e+00
	5.514390244285982e-03
	1.148345383279243e+00
	1.148342130303658e+00
	2.733325521788079e-03
	1.145222712812808e+00
	1.145219471631999e+00
	2.724653602148465e-03
	1.164673079759369e+00
	1.164669783906239e+00
	2.770771006203447e-03
	1.161610513598156e+00
	1.161607196951752e+00
	2.775840713214787e-03
	4.490491085654070e-01
	4.490389991132355e-01
	3.013167564266735e-03
	4.494951200133617e-01
	4.494849741519465e-01
	3.020087324963584e-03
	7.917651812114956e-03
	7.917650773222410e-03
	4.056005154863733e-06
	1.294136371497726e-03
	1.294135609220221e-03
	1.404628601287365e-06
	3.658154246965288e+00

 14	2.195146020234698e+00
	2.592478819315230e-05
	1.892773346830097e+00
	1.892765365871297e+00
	5.496565154892948e-03
	1.892772456889765e+00
	1.892764490517709e+00
	5.491538560079492e-03
	1.111921219267636e+00
	1.111917887517452e+00
	2.721998595529611e-03
	1.108897596068216e+00
	1.108894276398432e+00
	2.713362612405249e-03
	1.127731020243542e+00
	1.127727644577483e+00
	2.759288905511017e-03
	1.124765596724815e+00
	1.124762199761950e+00
	2.764337603609594e-03
	4.348062936662717e-01
	4.347959394078059e-01
	3.000680969994377e-03
	4.352381601218794e-01
	4.352277685725164e-01
	3.007572055138869e-03
	7.666512018883143e-03
	7.666510954832518e-03
	4.039197031967665e-06
	1.253087726521095e-03
	1.253086945784100e-03
	1.398807807375998e-06
	3.542122156095724e+00

 15	2.321954250288979e+00
	2.520694439387173e-05
	1.831906703108219e+00
	1.831898532584519e+00
	5.471307660006622e-03
	1.831905840970711e+00
	1.831897685380219e+00
	5.466304163107809e-03
	1.076164663213769e+00
	1.076161252327247e+00
	2.709490626703664e-03
	1.073238271871044e+00
	1.073234873351858e+00
	2.700894327144130e-03
	1.091466061040355e+00
	1.091462605194860e+00
	2.746609582432533e-03
	1.088595999681097e+00
	1.088592522032954e+00
	2.751635081048751e-03
	4.208245361027832e-01
	4.208139359144569e-01
	2.986892416212267e-03
	4.212425168450170e-01
	4.212318784800953e-01
	2.993751835845149e-03
	7.419975282345294e-03
	7.419974193021055e-03
	4.020636349888607e-06
	1.212791448663243e-03
	1.212790649381986e-03
	1.392380087522014e-06
	3.428216786373600e+00

 16	2.456087882417324e+00
	2.450897766667321e-05
	1.772115198783923e+00
	1.772106838354813e+00
	5.443456355189408e-03
	1.772114363951394e+00
	1.772106018802579e+00
	5.438478328237804e-03
	1.041039705053527e+00
	1.041036214888505e+00
	2.695698156231693e-03
	1.038208828078661e+00
	1.038205350568426e+00
	2.687145615527311e-03
	1.055841680078357e+00
	1.055838143909390e+00
	2.732628160540769e-03
	1.053065296431103e+00
	1.053061737952736e+00
	2.737628077211600e-03
	4.070897541759508e-01
	4.070789076166303e-01
	2.971687851543346e-03
	4.074940944963891e-01
	4.074832088731883e-01
	2.978512353785566e-03
	7.177793319828986e-03
	7.177792205185722e-03
	4.000169584814142e-06
	1.173206956219806e-03
	1.173206138360968e-03
	1.385292275141826e-06
	3.316323424437293e+00

 17	2.597970087225644e+00
	2.383033762612583e-05
	1.713340229046784e+00
	1.713331678964449e+00
	5.412792897399065e-03
	1.713339421049575e+00
	1.713330886594160e+00
	5.407842912101390e-03
	1.006511917093189e+00
	1.006508347754930e+00
	2.680513056685459e-03
	1.003774930615958e+00
	1.003771374219556e+00
	2.672008693178403e-03
	1.020822960155391e+00
	1.020819343769602e+00
	2.717235031104259e-03
	1.018138661587849e+00
	1.018135022386583e+00
	2.722206782814499e-03
	3.935884848692407e-01
	3.935773922667803e-01
	2.954948078308096e-03
	3.939794166863028e-01
	3.939682841338600e-01
	2.961734137542287e-03
	6.939728759058771e-03
	6.939727619130089e-03
	3.977636285528818e-06
	1.134295450780538e-03
	1.134294614368779e-03
	1.377488804635175e-06
	3.206332397658364e+00

 18	2.748048480853339e+00
	2.317048912696173e-05
	1.655526390406849e+00
	1.655517651585742e+00
	5.379091146327456e-03
	1.655525608802134e+00
	1.655516885952901e+00
	5.374171981195166e-03
	9.725487522883458e-01
	9.725451041585862e-01
	2.663823339289466e-03
	9.699041209431587e-01
	9.699004860409405e-01
	2.655371926624508e-03
	9.863768914585712e-01
	9.863731952427284e-01
	2.700316671145333e-03
	9.837831721377358e-01
	9.837794526027784e-01
	2.705257467165671e-03
	3.803080004820560e-01
	3.802966630235647e-01
	2.936549642149102e-03
	3.806857430710652e-01
	3.806743647807673e-01
	2.943293449244092e-03
	6.705557194745706e-03
	6.705556029653508e-03
	3.952870270927544e-06
	1.096020253375407e-03
	1.096019398500173e-03
	1.368912126091583e-06
	3.098140024332132e+00

 19	2.906796537132124e+00
	2.252891184208449e-05
	1.598622055585684e+00
	1.598613129673978e+00
	5.342119333007644e-03
	1.598621299955853e+00
	1.598612390357963e+00
	5.337233978504326e-03
	9.391198819678780e-01
	9.391161557346520e-01
	2.645514227854458e-03
	9.365661528614325e-01
	9.365624401389385e-01
	2.637120903822488e-03
	9.524727140901781e-01
	9.524689387413849e-01
	2.681756732086091e-03
	9.499681490657387e-01
	9.499643498985916e-01
	2.686663568803072e-03
	3.672364406886371e-01
	3.672248605131740e-01
	2.916366015915514e-03
	3.676012015430350e-01
	3.675895796616473e-01
	2.923063471169626e-03
	6.475069517160949e-03
	6.475068327124960e-03
	3.925701223640957e-06
	1.058347185079821e-03
	1.058346311902335e-03
	1.359503257177673e-06
	2.991649689524384e+00

 20	3.074715081321830e+00
	2.190509985226234e-05
	1.542580010503214e+00
	1.542570899954826e+00
	5.301642826199166e-03
	1.542579280453964e+00
	1.542570186556848e+00
	5.296794487358069e-03
	9.061975700362982e-01
	9.061937667240076e-01
	2.625469528741492e-03
	9.037333656976849e-01
	9.037295761756023e-01
	2.617139799776618e-03
	9.190822975905842e-01
	9.190784441467450e-01
	2.661437428480451e-03
	9.166655358803469e-01
	9.166616581254627e-01
	2.666307086767431e-03
	3.543629588626551e-01
	3.543511391546743e-01
	2.894269109886136e-03
	3.547149347005407e-01
	3.547030724239887e-01
	2.900915819438741e-03
	6.248074492199214e-03
	6.248073277546581e-03
	3.895956722931977e-06
	1.021244988723726e-03
	1.021244097484031e-03
	1.349202487145250e-06
	2.886773037123705e+00

 21	3.252333870135678e+00
	2.129856124718276e-05
	1.487358143809929e+00
	1.487348851955502e+00
	5.257427542904507e-03
	1.487357438968036e+00
	1.487348164096249e+00
	5.252619638827193e-03
	8.737570780439632e-01
	8.737531990430093e-01
	2.603573319811469e-03
	8.713810882732651e-01
	8.713772233369539e-01
	2.595313060129631e-03
	8.861805517679331e-01
	8.861766216377761e-01
	2.639241250101604e-03
	8.838503083629403e-01
	8.838463534379352e-01
	2.644070295822319e-03
	3.416778804739775e-01
	3.416658255554180e-01
	2.870131133636174e-03
	3.420172584019658e-01
	3.420051600677568e-01
	2.876722410155029e-03
	6.024401554283788e-03
	6.024400315458547e-03
	3.863464750947396e-06
	9.846857853931862e-04
	9.846848764170893e-04
	1.337950244770833e-06
	2.783431260226907e+00

 22	3.440213263039755e+00
	2.070881773755406e-05
	1.432920174069928e+00
	1.432910705184810e+00
	5.209244029895629e-03
	1.432919494080672e+00
	1.432910042501750e+00
	5.204480189518048e-03
	8.417770923751858e-01
	8.417731394703476e-01
	2.579711971670963e-03
	8.394880649304375e-01
	8.394841263582054e-01
	2.571527415995827e-03
	8.537458599602131e-01
	8.537418549520424e-01
	2.615053010878138e-03
	8.515009066905754e-01
	8.514968764151624e-01
	2.619837799139232e-03
	3.291728701364801e-01
	3.291605855549565e-01
	2.843826824221323e-03
	3.294998289794780e-01
	3.294875001552091e-01
	2.850357692706940e-03
	5.803903751748562e-03
	5.803902489320698e-03
	3.828056692056250e-06
	9.486455558471653e-04
	9.486446295528903e-04
	1.325688137045783e-06
	2.681556461984047e+00

 23	3.638945990099385e+00
	2.013540427794771e-05
	1.379236393656925e+00
	1.379226753023850e+00
	5.156872215666329e-03
	1.379235738181168e+00
	1.379226115168187e+00
	5.152156269179265e-03
	8.102401612541043e-01
	8.102361366507053e-01
	2.553776500925090e-03
	8.080368913499092e-01
	8.080328813390832e-01
	2.545674229747863e-03
	8.217605222546669e-01
	8.217564446028742e-01
	2.588762234385528e-03
	8.195996774899426e-01
	8.195955741126104e-01
	2.593498918153848e-03
	3.168411024975140e-01
	3.168285951076342e-01
	2.815236040360240e-03
	3.171558142982387e-01
	3.171432618632077e-01
	2.821701249907827e-03
	5.586460759917060e-03
	5.586459474590867e-03
	3.789570824862945e-06
	9.131046330086665e-04
	9.131036899129835e-04
	1.312360158495934e-06
	2.581093047720051e+00

 24	3.849159021949672e+00
	1.957786870008423e-05
	1.326284401984420e+00
	1.326274595948304e+00
	5.100106796426713e-03
	1.326283770695322e+00
	1.326273982581602e+00
	5.095442761770738e-03
	7.791331254843905e-01
	7.791290318311747e-01
	2.525665237419488e-03
	7.770144441192343e-01
	7.770103653089546e-01
	2.517652153796473e-03
	7.902111923519545e-01
	7.902070447401971e-01
	2.560265857628292e-03
	7.881333095527843e-01
	7.881291357741216e-01
	2.564950401295302e-03
	3.046774306800369e-01
	3.046647087144930e-01
	2.784246702752843e-03
	3.049800623658528e-01
	3.049672945824051e-01
	2.790640745066701e-03
	5.371981850979373e-03
	5.371980543600756e-03
	3.747856280158185e-06
	8.780481873862626e-04
	8.780472281098491e-04
	1.297914061848012e-06
	2.481999097096494e+00

 25	4.071515547789679e+00
	1.903577135627350e-05
	1.274049794272497e+00
	1.274039830284536e+00
	5.038763175907120e-03
	1.274049186851902e+00
	1.274039241075021e+00
	5.034155239835626e-03
	7.484475230681733e-01
	7.484433634757145e-01
	2.495286765738784e-03
	7.464122842514641e-01
	7.464081397410262e-01
	2.487370062756551e-03
	7.590892879381282e-01
	7.590850735179806e-01
	2.529471212835829e-03
	7.570932431288122e-01
	7.570890021202770e-01
	2.534099411237860e-03
	2.926785445138647e-01
	2.926656176406406e-01
	2.750758036733882e-03
	2.929692597208089e-01
	2.929562862917507e-01
	2.757075172088579e-03
	5.160408683735815e-03
	5.160407355298174e-03
	3.702777405823735e-06
	8.434666830593389e-04
	8.434657083310937e-04
	1.282302869636052e-06
	2.384247653065110e+00

 26	4.306717067640506e+00
	1.850868477272821e-05
	1.222526766290836e+00
	1.222516652938957e+00
	4.972683828354062e-03
	1.222526182425351e+00
	1.222516087557539e+00
	4.968136321677344e-03
	7.181799444641133e-01
	7.181757225175271e-01
	2.462563076277404e-03
	7.162270114771728e-01
	7.162228048386932e-01
	2.454750194520685e-03
	7.283913509939233e-01
	7.283870733977563e-01
	2.496299221701656e-03
	7.264760292875863e-01
	7.264717247044662e-01
	2.500866724984687e-03
	2.808431094685748e-01
	2.808299888304462e-01
	2.714684045955196e-03
	2.811220705034131e-01
	2.811089026116544e-01
	2.720918337134074e-03
	4.951717753014696e-03
	4.951716404662981e-03
	3.654218442734893e-06
	8.093562780353198e-04
	8.093552886953421e-04
	1.265486493506137e-06
	2.287827853579940e+00

 27	4.555505605468011e+00
	1.799619331247702e-05
	1.171718591130555e+00
	1.171708338153276e+00
	4.901744899756816e-03
	1.171718030507374e+00
	1.171707796269349e+00
	4.897262266549338e-03
	6.883323126674435e-01
	6.883280324321728e-01
	2.427432834286509e-03
	6.864605435628740e-01
	6.864562788470545e-01
	2.419731408934496e-03
	6.981193318570960e-01
	6.981149952039390e-01
	2.460687709215001e-03
	6.962836132339529e-01
	6.962792492212645e-01
	2.465190053762779e-03
	2.691718761926985e-01
	2.691585744252077e-01
	2.675957116122659e-03
	2.694392461038295e-01
	2.694258964304230e-01
	2.682102470632357e-03
	4.745922320746923e-03
	4.745920953779487e-03
	3.602088375733954e-06
	7.757191398811553e-04
	7.757181368821002e-04
	1.247433414144841e-06
	2.192745823825337e+00

 28	4.818666050152229e+00
	1.749789284761187e-05
	1.121637921909990e+00
	1.121627540190913e+00
	4.825862808178479e-03
	1.121637384212548e+00
	1.121627021468019e+00
	4.821449568950180e-03
	6.589120610332464e-01
	6.589077270527641e-01
	2.389854648477460e-03
	6.571202936507435e-01
	6.571159753845833e-01
	2.382272446029938e-03
	6.682807695740676e-01
	6.682763784672813e-01
	2.422594717042854e-03
	6.665235141855130e-01
	6.665190953756596e-01
	2.427027362467551e-03
	2.576677500703452e-01
	2.576542812946572e-01
	2.634531618244272e-03
	2.579236947878521e-01
	2.579101775048237e-01
	2.640581838804122e-03
	4.543073641970823e-03
	4.543072257838682e-03
	3.546325783933667e-06
	7.425636461175871e-04
	7.425626305241273e-04
	1.228122360984523e-06
	2.099025242698191e+00

 29	5.097028631688890e+00
	1.701339044061065e-05
	1.072306875228764e+00
	1.072296376769317e+00
	4.745000555316205e-03
	1.072306360132310e+00
	1.072295880860772e+00
	4.740661264411876e-03
	6.299321822984183e-01
	6.299277995828472e-01
	2.349810196620727e-03
	6.282192191472687e-01
	6.282148523227247e-01
	2.342355041707737e-03
	6.388888416188938e-01
	6.388844011346394e-01
	2.382001671948350e-03
	6.372088749609356e-01
	6.372044064621040e-01
	2.386360043878503e-03
	2.463358104150591e-01
	2.463221902025861e-01
	2.590387354232655e-03
	2.465805009098977e-01
	2.465668316447436e-01
	2.596336197176941e-03
	4.343261302772479e-03
	4.343259903075687e-03
	3.486903478820743e-06
	7.099044394551771e-04
	7.099034124413365e-04
	1.207543918414686e-06
	2.006707498984262e+00

 30	5.391471540435052e+00
	1.654230403448428e-05
	1.023756854877685e+00
	1.023746252746281e+00
	4.659173424365041e-03
	1.023756362044895e+00
	1.023745779290873e+00
	4.654912622153025e-03
	6.014111250148386e-01
	6.014066990197262e-01
	2.307307047231243e-03
	5.997757184380362e-01
	5.997713084908749e-01
	2.299986740470478e-03
	6.099622588538638e-01
	6.099577745195987e-01
	2.338916246132098e-03
	6.083583572168531e-01
	6.083538445913735e-01
	2.343195784234144e-03
	2.351832699985744e-01
	2.351695153050068e-01
	2.543532667478863e-03
	2.354168844016463e-01
	2.354030801711264e-01
	2.549373908302522e-03
	4.146612506142310e-03
	4.146611092623168e-03
	3.423832691378369e-06
	6.777623110704774e-04
	6.777612739146573e-04
	1.185701975818731e-06
	1.915851361451308e+00

 31	5.702923697662160e+00
	1.608426215150350e-05
	9.760280842264636e-01
	9.760173924830362e-01
	4.568453720398339e-03
	9.760276133032209e-01
	9.760169411009537e-01
	4.564275881124179e-03
	5.733725188431688e-01
	5.733680554379871e-01
	2.262381007090621e-03
	5.718133569285253e-01
	5.718089097069367e-01
	2.255203235496939e-03
	5.815249869173909e-01
	5.815204646799523e-01
	2.293374736914531e-03
	5.799958635684789e-01
	5.799913128007073e-01
	2.297570947268476e-03
	2.242193676597042e-01
	2.242054967271059e-01
	2.494007030717508e-03
	2.244420932743544e-01
	2.244281723862352e-01
	2.499734535564896e-03
	3.953290177852851e-03
	3.953288752385859e-03
	3.357166555598107e-06
	6.461638910159358e-04
	6.461628450935334e-04
	1.162614933945610e-06
	1.826532103764127e+00

 32	6.032367686157211e+00
	1.563890360026822e-05
	9.291688288739641e-01
	9.291580624698301e-01
	4.472974214696555e-03
	9.291683794854617e-01
	9.291576327589381e-01
	4.468883691186797e-03
	5.458447178892630e-01
	5.458402233156019e-01
	2.215097826941141e-03
	5.443604116223006e-01
	5.443559333452436e-01
	2.208070068924480e-03
	5.536057830673606e-01
	5.536012292506092e-01
	2.245443795797237e-03
	5.521500756509515e-01
	5.521454931046456e-01
	2.249552306435993e-03
	2.134551897620691e-01
	2.134412219889469e-01
	2.441882926352312e-03
	2.136672248993436e-01
	2.136532068219990e-01
	2.447490727824139e-03
	3.763489817755278e-03
	3.763488382333776e-03
	3.287002639567932e-06
	6.151411335637464e-04
	6.151400803373580e-04
	1.138316581439406e-06
	1.738840049759260e+00

 33	6.380842850117579e+00
	1.520587719088798e-05
	8.832343080439302e-01
	8.832234826979867e-01
	4.372929987929271e-03
	8.832338797912256e-01
	8.832230742306130e-01
	4.368930954609684e-03
	5.188601611921579e-01
	5.188556420120440e-01
	2.165554114262865e-03
	5.174492333480034e-01
	5.174447305537115e-01
	2.158683541730223e-03
	5.262375475762344e-01
	5.262329688286906e-01
	2.195221353744749e-03
	5.248538072200853e-01
	5.248491995857110e-01
	2.199237971886481e-03
	2.029034201509984e-01
	2.028893759316802e-01
	2.387266852684725e-03
	2.031049757166444e-01
	2.030908809178562e-01
	2.392749227955806e-03
	3.577435090380681e-03
	3.577433647100346e-03
	3.213484299956575e-06
	5.847305965000418e-04
	5.847295375073529e-04
	1.112856563919607e-06
	1.652878536240240e+00

 34	6.749448574119218e+00
	1.478484145804932e-05
	8.382853127573870e-01
	8.382744448108475e-01
	4.268578430308304e-03
	8.382849052145598e-01
	8.382740571312046e-01
	4.264674826221965e-03
	4.924545609564047e-01
	4.924500239916583e-01
	2.113877333349461e-03
	4.911154371990965e-01
	4.911109166846555e-01
	2.107170713806645e-03
	4.994565004212907e-01
	4.994519036546937e-01
	2.142836621261420e-03
	4.981431830076463e-01
	4.981385572405488e-01
	2.146757390542024e-03
	1.925780227504020e-01
	1.925639232865672e-01
	2.330299323997525e-03
	1.927693235167038e-01
	1.927551732745126e-01
	2.335650872934723e-03
	3.395372227855715e-03
	3.395370778895195e-03
	3.136800682120716e-06
	5.549725262812595e-04
	5.549714631208338e-04
	1.086300384009402e-06
	1.568761327036843e+00

 35	7.139347751502845e+00
	1.437546439175145e-05
	7.943865693684397e-01
	7.943756756214292e-01
	4.160237247641907e-03
	7.943861820804747e-01
	7.943753082437964e-01
	4.156432721290744e-03
	4.666659411969602e-01
	4.666613934609811e-01
	2.060224817870138e-03
	4.653969437929359e-01
	4.653924125463157e-01
	2.053688419656302e-03
	4.733012062605199e-01
	4.732965985807128e-01
	2.088449087425832e-03
	4.720566662612156e-01
	4.720520295120689e-01
	2.092270343299943e-03
	1.824938656623287e-01
	1.824797327510057e-01
	2.271153782021321e-03
	1.826751511666692e-01
	1.826609673566089e-01
	2.276369502801663e-03
	3.217563401453342e-03
	3.217561949052468e-03