Title: simulation of the folded cascode ota designed with the ekv 2.6 model by c. enz
Date: Fri Jul 25 15:59:41  2025
Plotname: Noise Spectral Density Curves
Flags: real
No. Variables: 42
No. Points: 329
Variables:
	0	frequency	frequency grid=3
	1	inoise_spectrum	voltage-density
	2	onoise_n1a	voltage-density
	3	onoise_n1a_flicker	voltage-density
	4	onoise_n1a_thermal	voltage-density
	5	onoise_n1b	voltage-density
	6	onoise_n1b_flicker	voltage-density
	7	onoise_n1b_thermal	voltage-density
	8	onoise_n2a	voltage-density
	9	onoise_n2a_flicker	voltage-density
	10	onoise_n2a_thermal	voltage-density
	11	onoise_n2b	voltage-density
	12	onoise_n2b_flicker	voltage-density
	13	onoise_n2b_thermal	voltage-density
	14	onoise_n2c	voltage-density
	15	onoise_n2c_flicker	voltage-density
	16	onoise_n2c_thermal	voltage-density
	17	onoise_n3a	voltage-density
	18	onoise_n3a_flicker	voltage-density
	19	onoise_n3a_thermal	voltage-density
	20	onoise_n3b	voltage-density
	21	onoise_n3b_flicker	voltage-density
	22	onoise_n3b_thermal	voltage-density
	23	onoise_n4a	voltage-density
	24	onoise_n4a_flicker	voltage-density
	25	onoise_n4a_thermal	voltage-density
	26	onoise_n4b	voltage-density
	27	onoise_n4b_flicker	voltage-density
	28	onoise_n4b_thermal	voltage-density
	29	onoise_n5a	voltage-density
	30	onoise_n5a_flicker	voltage-density
	31	onoise_n5a_thermal	voltage-density
	32	onoise_n5b	voltage-density
	33	onoise_n5b_flicker	voltage-density
	34	onoise_n5b_thermal	voltage-density
	35	onoise_n7a	voltage-density
	36	onoise_n7a_flicker	voltage-density
	37	onoise_n7a_thermal	voltage-density
	38	onoise_n7b	voltage-density
	39	onoise_n7b_flicker	voltage-density
	40	onoise_n7b_thermal	voltage-density
	41	onoise_spectrum	voltage-density
Values:
 0	1.000000000000000e+00
	3.492171504197664e-05
	3.254505756186216e+00
	3.254498408273303e+00
	6.915749833077987e-03
	3.254506468866895e+00
	3.254499120925660e+00
	6.915763918251081e-03
	3.333650244691804e-05
	3.333645382954426e-05
	5.693385667595036e-08
	2.839709231406052e+00
	2.839705085768457e+00
	4.852297755778887e-03
	2.839755469652832e+00
	2.839751323943304e+00
	4.852379357757525e-03
	8.495627973368074e-01
	8.495536043796201e-01
	3.952202466639529e-03
	8.495812501776431e-01
	8.495720570758438e-01
	3.952276473901530e-03
	1.249212099386337e-02
	1.249211632557114e-02
	1.079970930123180e-05
	1.248937593728261e-02
	1.248937126679277e-02
	1.080106406997503e-05
	9.111850626531425e-04
	9.111844759483360e-04
	1.034017875803996e-06
	9.086718349337771e-04
	9.086712504868454e-04
	1.030602052250297e-06
	9.218047546840448e-06
	9.217995776184643e-06
	3.089411033315419e-08
	9.224521247910511e-06
	9.224468847743627e-06
	3.109228457086564e-08
	6.225402690701710e+00

 1	1.057767560283176e+00
	3.395474697896591e-05
	3.159680215191362e+00
	3.159672669270501e+00
	6.905457027616293e-03
	3.159680907108379e+00
	3.159673361158433e+00
	6.905471091826229e-03
	3.236534421401256e-05
	3.236529428627561e-05
	5.684940009489241e-08
	2.756969363090815e+00
	2.756965105738516e+00
	4.845076014384545e-03
	2.757014254106091e+00
	2.757009996679920e+00
	4.845157494913841e-03
	8.248097533861590e-01
	8.248003127040121e-01
	3.946320349426472e-03
	8.248276685779772e-01
	8.248182277473214e-01
	3.946394246542451e-03
	1.212814055687263e-02
	1.212813576278129e-02
	1.078363594555971e-05
	1.212547548263633e-02
	1.212547068628816e-02
	1.078498869798004e-05
	8.846360590977956e-04
	8.846354565827280e-04
	1.032478932809473e-06
	8.821960587190549e-04
	8.821954585227064e-04
	1.029068193072826e-06
	8.949533751257026e-06
	8.949480585112769e-06
	3.084836427232425e-08
	8.955818912250360e-06
	8.955765099626527e-06
	3.104624506605445e-08
	6.044015027820739e+00

 2	1.118872211587422e+00
	3.301455411499254e-05
	3.067090602453932e+00
	3.067082854520607e+00
	6.893994991940017e-03
	3.067091274096914e+00
	3.067083526133725e+00
	6.894009032805447e-03
	3.141709802490471e-05
	3.141704676026563e-05
	5.675535000313092e-08
	2.676180447588832e+00
	2.676176076262501e+00
	4.837033905960865e-03
	2.676224023139463e+00
	2.676219651737282e+00
	4.837115251244558e-03
	8.006403796587499e-01
	8.006306862418660e-01
	3.939770042262983e-03
	8.006577698791075e-01
	8.006480763097391e-01
	3.939843816720703e-03
	1.177274252817720e-02
	1.177273760574257e-02
	1.076573670741117e-05
	1.177015555036362e-02
	1.177015062561174e-02
	1.076708721446368e-05
	8.587130630733363e-04
	8.587124444282582e-04
	1.030765170748585e-06
	8.563445633842177e-04
	8.563439471199333e-04
	1.027360092335607e-06
	8.687356840233177e-06
	8.687302250315884e-06
	3.079742201453249e-08
	8.693457911368177e-06
	8.693402657658892e-06
	3.099497603260881e-08
	5.866904374989984e+00

 3	1.183506729519469e+00
	3.210039505589789e-05
	2.976645751134805e+00
	2.976637797299926e+00
	6.881237849021907e-03
	2.976646402973413e+00
	2.976638449107876e+00
	6.881251863905111e-03
	3.049083085559461e-05
	3.049077822827173e-05
	5.665067370315779e-08
	2.597262937520328e+00
	2.597258450025756e+00
	4.828083111405567e-03
	2.597305228077921e+00
	2.597300740505483e+00
	4.828164306162120e-03
	7.770308778670871e-01
	7.770209268501203e-01
	3.932479609132062e-03
	7.770477552766319e-01
	7.770378041031283e-01
	3.932553247072238e-03
	1.142557697196326e-02
	1.142557191871447e-02
	1.074581501586883e-05
	1.142306628154076e-02
	1.142306122591315e-02
	1.074716302384448e-05
	8.333905499884590e-04
	8.333899149028368e-04
	1.028857768940916e-06
	8.310918947387452e-04
	8.310912620971864e-04
	1.025458991530138e-06
	8.431258942034860e-06
	8.431202900862693e-06
	3.074072424825989e-08
	8.437180192437739e-06
	8.437123469827006e-06
	3.093791457123416e-08
	5.693896343122022e+00

 4	1.251875025862529e+00
	3.121154893662066e-05
	2.888255449955389e+00
	2.888247286478584e+00
	6.867047844686178e-03
	2.888256082439531e+00
	2.888247918931261e+00
	6.867061830668877e-03
	2.958561951752310e-05
	2.958556550271142e-05
	5.653424108688218e-08
	2.520138119287931e+00
	2.520133513514816e+00
	4.818126978252310e-03
	2.520179154042417e+00
	2.520174548189384e+00
	4.818208005574753e-03
	7.539576991300398e-01
	7.539474858337312e-01
	3.924370326481459e-03
	7.539740753779273e-01
	7.539638619209559e-01
	3.924443812570661e-03
	1.108629762036177e-02
	1.108629243392246e-02
	1.072365575253272e-05
	1.108386148439680e-02
	1.108385629551596e-02
	1.072500098074458e-05
	8.086432627993621e-04
	8.086426109745365e-04
	1.026736130884980e-06
	8.064128654061661e-04
	8.064122160898232e-04
	1.023344362198739e-06
	8.180984911717955e-06
	8.180927392844921e-06
	3.067765891365897e-08
	8.186730431334882e-06
	8.186672213055150e-06
	3.087444469594649e-08
	5.524818370980054e+00

 5	1.324192791886045e+00
	3.034731485275494e-05
	2.801830468123523e+00
	2.801822091450705e+00
	6.851274631587590e-03
	2.801831081683569e+00
	2.801822704978464e+00
	6.851288585445294e-03
	2.870055091900571e-05
	2.870049549312446e-05
	5.640481878281505e-08
	2.444728134827024e+00
	2.444723408770162e+00
	4.807060018288889e-03
	2.444767941700598e+00
	2.444763215561731e+00
	4.807140859496251e-03
	7.313975504752634e-01
	7.313870704534384e-01
	3.915356274033101e-03
	7.314134367047178e-01
	7.314029565180343e-01
	3.915429591328999e-03
	1.075456196913178e-02
	1.075455664724392e-02
	1.069902413336801e-05
	1.075219872994260e-02
	1.075219340554944e-02
	1.070036627166607e-05
	7.844462189782630e-04
	7.844455501304488e-04
	1.024377777188034e-06
	7.822825617589033e-04
	7.822818954850830e-04
	1.020993799199999e-06
	7.936282404097985e-06
	7.936223382376925e-06
	3.060755803827509e-08
	7.941856105658116e-06
	7.941796366256462e-06
	3.080389414949614e-08
	5.359499772857626e+00

 6	1.400688178817868e+00
	2.950701130784816e-05
	2.717282615899498e+00
	2.717274022705015e+00
	6.833754613509322e-03
	2.717283210946500e+00
	2.717274617718897e+00
	6.833768531684341e-03
	2.783472267591865e-05
	2.783466581688903e-05
	5.626106477189516e-08
	2.370956034453906e+00
	2.370951186236975e+00
	4.794767447496955e-03
	2.370994640115809e+00
	2.370989791814753e+00
	4.794848081977917e-03
	7.093274106447981e-01
	7.093166597371076e-01
	3.905343960063426e-03
	7.093428174990120e-01
	7.093320664222017e-01
	3.905417089872998e-03
	1.043003151017073e-02
	1.043002605072140e-02
	1.067166468477113e-05
	1.042773958446480e-02
	1.042773412244543e-02
	1.067300339096157e-05
	7.607747274799957e-04
	7.607740413436471e-04
	1.021758247538493e-06
	7.586763608573009e-04
	7.586756773614793e-04
	1.018382923029017e-06
	7.696902041293803e-06
	7.696841493171526e-06
	3.052969482020595e-08
	7.702307662389616e-06
	7.702246378026466e-06
	3.072553146781662e-08
	5.197771854432783e+00

 7	1.481602517625661e+00
	2.868997567600348e-05
	2.634524847018907e+00
	2.634516034252590e+00
	6.814310383258924e-03
	2.634525423944862e+00
	2.634516611144577e+00
	6.814324261832258e-03
	2.698724416484548e-05
	2.698718585240065e-05
	5.610152380126109e-08
	2.298745866236131e+00
	2.298740894138229e+00
	4.781124791662939e-03
	2.298783296118893e+00
	2.298778323934718e+00
	4.781205196712866e-03
	6.877245568266694e-01
	6.877135312174449e-01
	3.894232000172978e-03
	6.877394944552875e-01
	6.877284686726221e-01
	3.894304921904723e-03
	1.011237212464182e-02
	1.011236652569315e-02
	1.064130036575247e-05
	1.011015000255456e-02
	1.011014440097018e-02
	1.064263526289604e-05
	7.376044174127113e-04
	7.376037137442781e-04
	1.018851016654103e-06
	7.355699590306037e-04
	7.355692580701680e-04
	1.015485296030247e-06
	7.462597704168740e-06
	7.462535608015372e-06
	3.044328115037210e-08
	7.467838809540611e-06
	7.467775958323095e-06
	3.063856348640164e-08
	5.039468108688368e+00

 8	1.567191080378307e+00
	2.789556367936248e-05
	2.553471409715196e+00
	2.553462374654529e+00
	6.792750294555169e-03
	2.553471968893319e+00
	2.553462933797827e+00
	6.792764129217491e-03
	2.615723807510156e-05
	2.615717829113040e-05
	5.592462390693352e-08
	2.228022807768445e+00
	2.228017710253533e+00
	4.765997586000976e-03
	2.228059086086293e+00
	2.228053988482931e+00
	4.766077736653935e-03
	6.665666040726999e-01
	6.665553003562332e-01
	3.881910872628947e-03
	6.665810821391589e-01
	6.665697782448764e-01
	3.881983563640510e-03
	9.801254662715092e-03
	9.801248922537363e-03
	1.060763189942807e-05
	9.799100906697698e-03
	9.799095163817767e-03
	1.060896257302974e-05
	7.149112803254553e-04
	7.149105589075494e-04
	1.015627430276764e-06
	7.129394140485650e-04
	7.129386954069636e-04
	1.012272358604463e-06
	7.233126962083230e-06
	7.233063298557438e-06
	3.034746573887456e-08
	7.238206946205389e-06
	7.238142508557011e-06
	3.054213345464382e-08
	4.884424504796541e+00

 9	1.657723885589316e+00
	2.712314888005642e-05
	2.474038053422090e+00
	2.474028793729702e+00
	6.768868215900890e-03
	2.474038595207145e+00
	2.474029335479065e+00
	6.768882001923045e-03
	2.534384250561504e-05
	2.534378123454098e-05
	5.572867438287304e-08
	2.158713346532177e+00
	2.158708122281507e+00
	4.749241202462746e-03
	2.158748496302343e+00
	2.158743271961024e+00
	4.749321071320548e-03
	6.458315592508105e-01
	6.458199745032789e-01
	3.868262777708787e-03
	6.458455869408477e-01
	6.458340020110793e-01
	3.868335213151937e-03
	9.496355736961271e-03
	9.496349854069443e-03
	1.057033738863105e-05
	9.494268980534726e-03
	9.494263094873515e-03
	1.057166338382351e-05
	6.926717280801520e-04
	6.926709887261369e-04
	1.012056668371217e-06
	6.907612028329244e-04
	6.907604663242391e-04
	1.008713392527601e-06
	7.008251650853791e-06
	7.008186403305227e-06
	3.024133301675381e-08
	7.013173740925711e-06
	7.013107699993681e-06
	3.043531993054899e-08
	4.732479883510940e+00

 10	1.753486550082957e+00
	2.637212218622525e-05
	2.396142298412029e+00
	2.396132812198570e+00
	6.742443522565793e-03
	2.396142823140717e+00
	2.396133336890694e+00
	6.742457254769287e-03
	2.454621374070117e-05
	2.454615096989636e-05
	5.551186578264050e-08
	2.090745515169278e+00
	2.090740163116874e+00
	4.730700844112337e-03
	2.090779558237171e+00
	2.090774206091901e+00
	4.730780401173552e-03
	6.254978914260457e-01
	6.254860232841806e-01
	3.853161633118555e-03
	6.255114774577410e-01
	6.254996091291809e-01
	3.853233785784107e-03
	9.197358757369392e-03
	9.197352730563066e-03
	1.052907230340829e-05
	9.195337703625139e-03
	9.195331673981679e-03
	1.053039312210723e-05
	6.708626683457565e-04
	6.708619109047685e-04
	1.008105743927125e-06
	6.690122967438153e-04
	6.690115422177629e-04
	1.004775519757194e-06
	6.787738640890510e-06
	6.787671795799875e-06
	3.012390315101317e-08
	6.792505900367260e-06
	6.792438242467909e-06
	3.031713679585591e-08
	4.583476472946404e+00

 11	1.854781190070612e+00
	2.564189137171497e-05
	2.319703775368975e+00
	2.319694061261335e+00
	6.713241390640609e-03
	2.319704283360400e+00
	2.319694569215318e+00
	6.713255063368690e-03
	2.376352971599678e-05
	2.376346543623154e-05
	5.527227235450979e-08
	2.024049187777448e+00
	2.024043707148588e+00
	4.710211751443484e-03
	2.024082144846637e+00
	2.024076664122680e+00
	4.710290963935895e-03
	6.055446204973077e-01
	6.055324672437404e-01
	3.836473242038555e-03
	6.055577731330468e-01
	6.055456196882997e-01
	3.836545082204406e-03
	8.903955234790664e-03
	8.903949063197412e-03
	1.048346994022515e-05
	8.901998654599161e-03
	8.901992480100620e-03
	1.048478503833473e-05
	6.494615996720541e-04
	6.494608240344489e-04
	1.003739546925359e-06
	6.476702563957677e-04
	6.476694837431261e-04
	1.000423746260025e-06
	6.571360793647214e-06
	6.571292341103624e-06
	2.999413336976234e-08
	6.575976126441032e-06
	6.575906841542988e-06
	3.018653458968010e-08
	4.437260538133115e+00

 12	1.961927374280117e+00
	2.493188060907447e-05
	2.244644641310699e+00
	2.244634698525335e+00
	6.681013464725150e-03
	2.244645132866914e+00
	2.244635190043227e+00
	6.681027071815239e-03
	2.299499426680209e-05
	2.299492847272782e-05
	5.500785755116005e-08
	1.958556442823736e+00
	1.958550833176329e+00
	4.687599670849554e-03
	1.958588333491840e+00
	1.958582723747097e+00
	4.687678503070487e-03
	5.859514257645629e-01
	5.859389864195667e-01
	3.818055674692704e-03
	5.859641528253612e-01
	5.859517132846844e-01
	3.818127169979036e-03
	8.615846377418688e-03
	8.615840060540647e-03
	1.043314246461310e-05
	8.613953107313690e-03
	8.613946787461964e-03
	1.043445124939240e-05
	6.284467279366448e-04
	6.284459340398525e-04
	9.989209441641747e-07
	6.267133477789653e-04
	6.267125569374051e-04
	9.956210615020217e-07
	6.358898136167256e-06
	6.358828070381291e-06
	2.985092096323047e-08
	6.363364291673490e-06
	6.363293373916959e-06
	3.004240352877726e-08
	4.293683176616328e+00

 13	2.075263132145056e+00
	2.424153001548369e-05
	2.170890076984485e+00
	2.170879905405422e+00
	6.645498976783668e-03
	2.170890552391158e+00
	2.170880380772890e+00
	6.645512511542087e-03
	2.223984222052201e-05
	2.223977491118495e-05
	5.471648327472243e-08
	1.894201997147467e+00
	1.894196258416054e+00
	4.662681639646071e-03
	1.894232839949114e+00
	1.894227101118125e+00
	4.662760052815932e-03
	5.666987757642887e-01
	5.666860501833679e-01
	3.797759907750348e-03
	5.667110846469338e-01
	5.666983588658300e-01
	3.797831022986796e-03
	8.332745000033288e-03
	8.332738537796707e-03
	1.037768265840646e-05
	8.330913939658699e-03
	8.330907474380006e-03
	1.037898448603541e-05
	6.077971056090145e-04
	6.077962934437675e-04
	9.936109465522001e-07
	6.061206811434096e-04
	6.061198721036991e-04
	9.903286051952125e-07
	6.150139266872712e-06
	6.150067586722035e-06
	2.969310830184922e-08
	6.154458845982583e-06
	6.154386294231606e-06
	2.988357855781556e-08
	4.152601269903083e+00

 14	2.195146020234698e+00
	2.357029521125501e-05
	2.098368868902478e+00
	2.098358469163293e+00
	6.606426397574369e-03
	2.098369328429680e+00
	2.098358928650411e+00
	6.606439852754427e-03
	2.149734534690055e-05
	2.149727652628153e-05
	5.439592348428050e-08
	1.830923713815060e+00
	1.830917846357075e+00
	4.635267144763249e-03
	1.830953526273122e+00
	1.830947658713327e+00
	4.635345096898556e-03
	5.477680801999213e-01
	5.477550691763818e-01
	3.775430768082749e-03
	5.477799778974173e-01
	5.477669666692044e-01
	3.775501465193241e-03
	8.054377758096136e-03
	8.054371150903471e-03
	1.031666649862018e-05
	8.052607867153281e-03
	8.052601256850266e-03
	1.031796067207750e-05
	5.874927947055844e-04
	5.874919643224641e-04
	9.877689560208630e-07
	5.858723734934787e-04
	5.858715463060045e-04
	9.845059133766622e-07
	5.944882999997618e-06
	5.944809709600247e-06
	2.951949022757380e-08
	5.949058462265401e-06
	5.948984280688099e-06
	2.970884678810919e-08
	4.013878596812394e+00

 15	2.321954250288979e+00
	2.291764689055968e-05
	2.027014076323225e+00
	2.027003449892013e+00
	6.563515702416386e-03
	2.027014520226367e+00
	2.027003893754196e+00
	6.563529070201063e-03
	2.076681917241364e-05
	2.076674884998742e-05
	5.404388284272262e-08
	1.768663184094165e+00
	1.768657188737866e+00
	4.605159712476136e-03
	1.768691982780455e+00
	1.768685987320127e+00
	4.605237158289266e-03
	5.291418640476313e-01
	5.291285694188795e-01
	3.750908227600232e-03
	5.291533571734225e-01
	5.291400623355359e-01
	3.750978465512080e-03
	7.780487707918723e-03
	7.780480956702610e-03
	1.024965669570360e-05
	7.778778002574397e-03
	7.778771248180135e-03
	1.025094246311736e-05
	5.675150535297580e-04
	5.675142050459784e-04
	9.813531042935750e-07
	5.659497348277794e-04
	5.659488896093043e-04
	9.781112560823659e-07
	5.742940247355731e-06
	5.742865356663957e-06
	2.932882417134654e-08
	5.746973919487133e-06
	5.746898118156838e-06
	2.951695767998168e-08
	3.877387109315317e+00

 16	2.456087882417324e+00
	2.228307040404087e-05
	1.956763779613136e+00
	1.956752928879111e+00
	6.516481328549817e-03
	1.956764208134064e+00
	1.956753357358217e+00
	6.516494600540498e-03
	2.004763063693059e-05
	2.004755882823573e-05
	5.365802107466777e-08
	1.707366380435225e+00
	1.707360258528560e+00
	4.572158983377223e-03
	1.707394181041843e+00
	1.707388059028953e+00
	4.572235874211082e-03
	5.108039629068243e-01
	5.107903876627167e-01
	3.724029093319923e-03
	5.108150577232640e-01
	5.108014822656073e-01
	3.724098827904556e-03
	7.510837179184859e-03
	7.510830285463140e-03
	1.017620731177971e-05
	7.509186727832645e-03
	7.509179830865693e-03
	1.017748386533834e-05
	5.478465461973228e-04
	5.478456798036455e-04
	9.743206950613994e-07
	5.463354770793026e-04
	5.463346140198544e-04
	9.711020780507898e-07
	5.544136133385812e-06
	5.544059658791227e-06
	2.911984336998191e-08
	5.548030219211443e-06
	5.547952814719096e-06
	2.930663634443240e-08
	3.743008364043118e+00

 17	2.597970087225644e+00
	2.166606535298416e-05
	1.887561901458762e+00
	1.887550829818776e+00
	6.465035890478724e-03
	1.887562314827042e+00
	1.887551243144382e+00
	6.465049057691480e-03
	1.933920648111410e-05
	1.933913320832204e-05
	5.323598351946003e-08
	1.646984373018341e+00
	1.646978126477757e+00
	4.536063319172674e-03
	1.647011190440672e+00
	1.647004943791700e+00
	4.536139602979169e-03
	4.927397373693158e-01
	4.927258857603988e-01
	3.694629130604462e-03
	4.927504398207895e-01
	4.927365879939760e-01
	3.694698314657920e-03
	7.245210927105939e-03
	7.245203893036625e-03
	1.009586956256682e-05
	7.243618845437189e-03
	7.243611808056574e-03
	1.009713603816060e-05
	5.284715725562595e-04
	5.284706885239022e-04
	9.666287594866355e-07
	5.270139433984481e-04
	5.270130627682004e-04
	9.634355523864861e-07
	5.348312311727666e-06
	5.348234276665217e-06
	2.889127344039612e-08
	5.352068903803271e-06
	5.351989919868813e-06
	2.907660022368364e-08
	3.610635093148590e+00

 18	2.748048480853339e+00
	2.106614519472540e-05
	1.819359086362413e+00
	1.819347798305257e+00
	6.408894701027477e-03
	1.819359484796798e+00
	1.819348196696133e+00
	6.408907753898562e-03
	1.864104224539697e-05
	1.864096753786621e-05
	5.277543834843670e-08
	1.587474097154453e+00
	1.587467728512459e+00
	4.496672974791198e-03
	1.587499945586673e+00
	1.587493576834172e+00
	4.496748596163097e-03
	4.749363026048803e-01
	4.749221802478583e-01
	3.662545646848576e-03
	4.749466183559182e-01
	4.749324957767404e-01
	3.662614230120388e-03
	6.983419508285599e-03
	6.983412336720431e-03
	1.000819887751210e-05
	6.981884953618766e-03
	6.981877778677570e-03
	1.000945435526038e-05
	5.093763144235799e-04
	5.093754131109468e-04
	9.582347321725400e-07
	5.079713537175318e-04
	5.079704558735097e-04
	9.550692543088524e-07
	5.155329450870705e-06
	5.155249886406704e-06
	2.864185256776036e-08
	5.158950543823067e-06
	5.158870011890595e-06
	2.882557940883335e-08
	3.480172886655006e+00

 19	2.906796537132124e+00
	2.048283685898484e-05
	1.752113616785701e+00
	1.752102117971653e+00
	6.347781117869409e-03
	1.752114000495804e+00
	1.752102501637435e+00
	6.347794046271645e-03
	1.795271162420912e-05
	1.795263551900772e-05
	5.227412051520757e-08
	1.528799152662822e+00
	1.528792665112868e+00
	4.453793849669119e-03
	1.528824045706409e+00
	1.528817558043886e+00
	4.453868749934960e-03
	4.573827675158833e-01
	4.573683814931419e-01
	3.627620546905359e-03
	4.573927019944640e-01
	4.573783157454191e-01
	3.627688476184633e-03
	6.725302797242474e-03
	6.725295491777459e-03
	9.912763248986634e-06
	6.723824962082218e-03
	6.723817653178141e-03
	9.914006754815805e-06
	4.905490920858366e-04
	4.905481739448711e-04
	9.490972505612762e-07
	4.891960605359956e-04
	4.891951459284031e-04
	9.459619578951551e-07
	4.965069816967842e-06
	4.964988762354154e-06
	2.837035533869944e-08
	4.968557322654750e-06
	4.968475282453452e-06
	2.855234062593487e-08
	3.351541944907286e+00

 20	3.074715081321830e+00
	1.991568037482509e-05
	1.685792336558192e+00
	1.685780633890898e+00
	6.281432697436685e-03
	1.685792705746363e+00
	1.685781003033962e+00
	6.281445490708382e-03
	1.727387590901289e-05
	1.727379845139003e-05
	5.172988238126956e-08
	1.470930609586746e+00
	1.470924007023784e+00
	4.407241805518335e-03
	1.470954560372121e+00
	1.470947957694593e+00
	4.407315922909970e-03
	4.400704757912801e-01
	4.400558347408128e-01
	3.589703849913564e-03
	4.400800342373727e-01
	4.400653929565900e-01
	3.589771069180928e-03
	6.470733530807496e-03
	6.470726095828579e-03
	9.809152842291324e-06
	6.469311635623413e-03
	6.469304197144465e-03
	9.810383350716425e-06
	4.719806228291820e-04
	4.719796884111055e-04
	9.391770750415219e-07
	4.706788067440712e-04
	4.706778759220086e-04
	9.360745531608015e-07
	4.777439882559180e-06
	4.777357385732975e-06
	2.807562020096256e-08
	4.780795647061958e-06
	4.780712147111940e-06
	2.825571487181136e-08
	3.224678844920229e+00

 21	3.252333870135678e+00
	1.936422850793849e-05
	1.620371544075123e+00
	1.620359645762560e+00
	6.209608089920300e-03
	1.620371898938514e+00
	1.620360000580090e+00
	6.209620736908211e-03
	1.660429311123789e-05
	1.660421435502296e-05
	5.114075040120297e-08
	1.413847787547813e+00
	1.413841074602684e+00
	4.356847504065360e-03
	1.413870808868658e+00
	1.413864095807049e+00
	4.356920773966846e-03
	4.229932390775785e-01
	4.229783532692531e-01
	3.548657629641977e-03
	4.230024265967479e-01
	4.229875405542567e-01
	3.548724080295310e-03
	6.219620736555682e-03
	6.219613177277474e-03
	9.696990762967075e-06
	6.218254021808429e-03
	6.218246458971675e-03
	9.698207201225249e-06
	4.536642710119601e-04
	4.536633209721399e-04
	9.284381198638692e-07
	4.524129750034105e-04
	4.524120286197227e-04
	9.253710735653377e-07
	4.592372845191239e-06
	4.592288963197497e-06
	2.775658019881664e-08
	4.595598667576759e-06
	4.595513765616682e-06
	2.793462834660517e-08
	3.099538248937527e+00

 22	3.440213263039755e+00
	1.882804640797806e-05
	1.555837810092983e+00
	1.555825725694024e+00
	6.132094551766824e-03
	1.555838150825805e+00
	1.555826066380268e+00
	6.132107040884418e-03
	1.594382632138197e-05
	1.594374632928819e-05
	5.050498690327506e-08
	1.357538969307102e+00
	1.357532151372812e+00
	4.302461678044635e-03
	1.357561073766315e+00
	1.357554255713724e+00
	4.302534033329778e-03
	4.061475504702856e-01
	4.061324318640988e-01
	3.504360307719935e-03
	4.061563720919352e-01
	4.061412532479204e-01
	3.504425928880494e-03
	5.971912871803059e-03
	5.971905194298422e-03
	9.575944788396827e-06
	5.970600589277455e-03
	5.970592908158618e-03
	9.577146042047433e-06
	4.355962770258750e-04
	4.355953121275420e-04
	9.168485763823788e-07
	4.343948160759973e-04
	4.343938548909783e-04
	9.138198155420003e-07
	4.409830935540544e-06
	4.409745734852800e-06
	2.741229647309427e-08
	4.412928588245234e-06
	4.412842351556966e-06
	2.758813616871623e-08
	2.976094468757278e+00

 23	3.638945990099385e+00
	1.830671126565398e-05
	1.492188668357342e+00
	1.492176408810355e+00
	6.048715887789992e-03
	1.492188995153256e+00
	1.492176735559016e+00
	6.048728207091878e-03
	1.529245075789880e-05
	1.529236960170781e-05
	4.982115537002923e-08
	1.302002003365367e+00
	1.301995086613224e+00
	4.243960703622513e-03
	1.302023203530813e+00
	1.302016286658652e+00
	4.244032075086114e-03
	3.895327648130451e-01
	3.895174270948958e-01
	3.456711192383481e-03
	3.895412255525755e-01
	3.895258875931515e-01
	3.456775921287012e-03
	5.727600474459837e-03
	5.727592685678053e-03
	9.445739770283939e-06
	5.726341878018447e-03
	5.726334085570081e-03
	9.446924690368837e-06
	4.177759506532475e-04
	4.177749717697806e-04
	9.043821005324593e-07
	4.166236416478690e-04
	4.166226665315361e-04
	9.013945220522596e-07
	4.229807364160236e-06
	4.229720920874445e-06
	2.704199366185178e-08
	4.232778614742584e-06
	4.232691120347416e-06
	2.721545800254211e-08
	2.854342786803764e+00

 24	3.849159021949672e+00
	1.779981197932497e-05
	1.429433122921352e+00
	1.429420700551340e+00
	5.959340567980635e-03
	1.429433435975990e+00
	1.429421013558097e+00
	5.959352705253543e-03
	1.465025894608473e-05
	1.465017670668912e-05
	4.908818716536374e-08
	1.247244746616016e+00
	1.247237737999654e+00
	4.181252295394855e-03
	1.247265055183486e+00
	1.247258046445513e+00
	4.181322612279732e-03
	3.731512311491981e-01
	3.731356897398208e-01
	3.405635117057884e-03
	3.731593360730430e-01
	3.731437944191864e-01
	3.405698889532594e-03
	5.486718110261955e-03
	5.486710218033269e-03
	9.306170309951423e-06
	5.485512446174749e-03
	5.485504550230781e-03
	9.307337721752151e-06
	4.002058130989202e-04
	4.002048212144157e-04
	8.910190264243111e-07
	3.991019659688368e-04
	3.991009779014995e-04
	8.880755921690911e-07
	4.052327749382233e-06
	4.052240149259255e-06
	2.664509607045989e-08
	4.055174383279721e-06
	4.055085717981374e-06
	2.681601446058640e-08
	2.734300426554762e+00

 25	4.071515547789679e+00
	1.730694883082192e-05
	1.367591914832301e+00
	1.367579343333420e+00
	5.863889699737522e-03
	1.367592214345828e+00
	1.367579642798492e+00
	5.863901642607497e-03
	1.401746343677573e-05
	1.401738020405837e-05
	4.830544707269030e-08
	1.193285297034243e+00
	1.193278204279762e+00
	4.114281099943567e-03
	1.193304726994216e+00
	1.193297634116663e+00
	4.114350290561656e-03
	3.570083623619719e-01
	3.569926343950533e-01
	3.351086996316293e-03
	3.570161166541451e-01
	3.570003884398125e-01
	3.351149747346141e-03
	5.249345396347040e-03
	5.249337409371545e-03
	9.157113207865141e-06
	5.248191893383868e-03
	5.248183902648490e-03
	9.158261921201471e-06
	3.828916716508319e-04
	3.828906678587080e-04
	8.767475583205719e-07
	3.818355803097651e-04
	3.818345803806335e-04
	8.738512691226908e-07
	3.877450868179822e-06
	3.877362206514116e-06
	2.622126321220890e-08
	3.880174711995138e-06
	3.880084972246856e-06
	2.638946287204369e-08
	2.616007062674390e+00

 26	4.306717067640506e+00
	1.682773317024796e-05
	1.306697493896667e+00
	1.306684788287483e+00
	5.762344481681433e-03
	1.306697780076352e+00
	1.306685074418196e+00
	5.762356217736234e-03
	1.339439650255209e-05
	1.339431237508509e-05
	4.747279454640401e-08
	1.140151969032297e+00
	1.140144800613018e+00
	4.043033925656408e-03
	1.140170533836284e+00
	1.140163365292622e+00
	4.043101918097792e-03
	3.411126278310208e-01
	3.410967320972186e-01
	3.293056085574376e-03
	3.411200368595051e-01
	3.411041408756498e-01
	3.293117749942121e-03
	5.015606892789600e-03
	5.015598820608816e-03
	8.998539103589988e-06
	5.014504752350739e-03
	5.014496676369962e-03
	8.999667924602308e-06
	3.658426117723512e-04
	3.658415972717755e-04
	8.615648851101668e-07
	3.648335450746717e-04
	3.648325344782987e-04
	8.587187510884227e-07
	3.705268569986695e-06
	3.705178951282798e-06
	2.577042301083109e-08
	3.707871514715619e-06
	3.707780806292713e-06
	2.593573069830378e-08
	2.499524767003417e+00

 27	4.555505605468011e+00
	1.636178710950644e-05
	1.246793649277063e+00
	1.246780825826735e+00
	5.654752728470925e-03
	1.246793922339757e+00
	1.246781098840003e+00
	5.654764245395690e-03
	1.278150635165764e-05
	1.278142143620874e-05
	4.659063734500968e-08
	1.087882971128722e+00
	1.087875736223544e+00
	3.967544320733641e-03
	1.087900684850377e+00
	1.087893449819662e+00
	3.967611043652593e-03
	3.254754570323128e-01
	3.254594138868979e-01
	3.231569709882349e-03
	3.254825264133540e-01
	3.254664830155668e-01
	3.231630222882428e-03
	4.785670684584339e-03
	4.785662537534317e-03
	8.830522665010188e-06
	4.784619071134066e-03
	4.784610920248806e-03
	8.831630409205782e-06
	3.490708936676040e-04
	3.490698697575998e-04
	8.454781558648215e-07
	3.481080866529345e-04
	3.481070666833440e-04
	8.426851635243440e-07
	3.535904729004583e-06