Title: simulation of the simple ota designed with the ekv 2.6 model by c. enz
Date: Fri Jul 25 15:24:43  2025
Plotname: Noise Spectral Density Curves
Flags: real
No. Variables: 15
No. Points: 329
Variables:
	0	frequency	frequency grid=3
	1	inoise_spectrum	voltage-density
	2	onoise_n1a	voltage-density
	3	onoise_n1a_flicker	voltage-density
	4	onoise_n1a_thermal	voltage-density
	5	onoise_n1b	voltage-density
	6	onoise_n1b_flicker	voltage-density
	7	onoise_n1b_thermal	voltage-density
	8	onoise_n2a	voltage-density
	9	onoise_n2a_flicker	voltage-density
	10	onoise_n2a_thermal	voltage-density
	11	onoise_n2b	voltage-density
	12	onoise_n2b_flicker	voltage-density
	13	onoise_n2b_thermal	voltage-density
	14	onoise_spectrum	voltage-density
Values:
 0	1.000000000000000e+00
	1.572125478951264e-05
	6.443740319126330e-03
	6.443497485462119e-03
	5.594153356544881e-05
	6.443741673314842e-03
	6.443498840207865e-03
	5.594147525996428e-05
	1.394719096145229e-02
	1.394716851647435e-02
	2.502175619588411e-05
	1.401439858740920e-02
	1.401437603439427e-02
	2.514226267830726e-05
	2.177094740474984e-02

 1	1.057767560283176e+00
	1.528594466921164e-05
	6.265327982792608e-03
	6.265078233941263e-03
	5.594152804070539e-05
	6.265329299452581e-03
	6.265079551174337e-03
	5.594146973522649e-05
	1.356099708855418e-02
	1.356097400438536e-02
	2.502175372475442e-05
	1.362634375386881e-02
	1.362632055858630e-02
	2.514226019527647e-05
	2.116812360176757e-02

 2	1.118872211587422e+00
	1.486268836309866e-05
	6.091856167867359e-03
	6.091599306923893e-03
	5.594152185922539e-05
	6.091857448037044e-03
	6.091600587683000e-03
	5.594146355375282e-05
	1.318549673355069e-02
	1.318547299198837e-02
	2.502175095987693e-05
	1.324903396730531e-02
	1.324901011146500e-02
	2.514225741708316e-05
	2.058199191271830e-02

 3	1.183506729519469e+00
	1.445115211012824e-05
	5.923188078980132e-03
	5.922923903434707e-03
	5.594151494294166e-05
	5.923189323669003e-03
	5.922925148729784e-03
	5.594145663747614e-05
	1.282039378661631e-02
	1.282036936893956e-02
	2.502174786633343e-05
	1.288217169102250e-02
	1.288214715581334e-02
	2.514225430864098e-05
	2.001209012937728e-02

 4	1.251875025862529e+00
	1.405101139116608e-05
	5.759190708480262e-03
	5.758919010058839e-03
	5.594150720450700e-05
	5.759191918669819e-03
	5.758920220871863e-03
	5.594144889904940e-05
	1.246540033624315e-02
	1.246537522319797e-02
	2.502174440505493e-05
	1.252546762614716e-02
	1.252544239222247e-02
	2.514225083069275e-05
	1.945796884073997e-02

 5	1.324192791886045e+00
	1.366195067308768e-05
	5.599734731528011e-03
	5.599455296028489e-03
	5.594149854619132e-05
	5.599735908172542e-03
	5.599456473314241e-03
	5.594144024074257e-05
	1.212023644215275e-02
	1.212021061393689e-02
	2.502174053232832e-05
	1.217864048344664e-02
	1.217861453090886e-02
	2.514224693931485e-05
	1.891919107855228e-02

 6	1.400688178817868e+00
	1.328366315996303e-05
	5.444694404087546e-03
	5.444407011211278e-03
	5.594148885864727e-05
	5.444695548114891e-03
	5.444408155898101e-03
	5.594143055320843e-05
	1.178462991448890e-02
	1.178460335073626e-02
	2.502173619924425e-05
	1.184141676145768e-02
	1.184139006984267e-02
	2.514224258536239e-05
	1.839533197264517e-02

 7	1.481602517625661e+00
	1.291585055113103e-05
	5.293947463741245e-03
	5.293651886919781e-03
	5.594147801952940e-05
	5.293948576053520e-03
	5.293652999910314e-03
	5.594141971410165e-05
	1.145831609911692e-02
	1.145828877888152e-02
	2.502173135107957e-05
	1.151353053075107e-02
	1.151350307901204e-02
	2.514223771384865e-05
	1.788597841580112e-02

 8	1.567191080378307e+00
	1.255822280597286e-05
	5.147375033246820e-03
	5.147071039463761e-03
	5.594146589194909e-05
	5.147376114721130e-03
	5.147072121635642e-03
	5.594140758653374e-05
	1.114103766885968e-02
	1.114100957059915e-02
	2.502172592660617e-05
	1.119472322416174e-02
	1.119469499065262e-02
	2.514223226325066e-05
	1.739072873788770e-02

 9	1.657723885589316e+00
	1.221049791519889e-05
	5.004861526761013e-03
	5.004548876368838e-03
	5.594145232274583e-05
	5.004862578250144e-03
	5.004549928575405e-03
	5.594139401734434e-05
	1.083254442050519e-02
	1.083251552206381e-02
	2.502171985731779e-05
	1.088474343281815e-02
	1.088471439527659e-02
	2.514222616473223e-05
	1.690919238900025e-02

 10	1.753486550082957e+00
	1.187240167846875e-05
	4.866294558655682e-03
	4.865973005187405e-03
	5.594143714055309e-05
	4.866295580988778e-03
	4.865974028258364e-03
	5.594137883516713e-05
	1.053259307742524e-02
	1.053256335601649e-02
	2.502171306656493e-05
	1.058334670780983e-02
	1.058331684333960e-02
	2.514221934127470e-05
	1.644098963136319e-02

 11	1.854781190070612e+00
	1.154366748816913e-05
	4.731564854854054e-03
	4.731234144829577e-03
	5.594142015363415e-05
	4.731565848837263e-03
	4.731235139571658e-03
	5.594136184826556e-05
	1.024094709764872e-02
	1.024091652983732e-02
	2.502170546858681e-05
	1.029029536733581e-02
	1.029026465238884e-02
	2.514221170670425e-05
	1.598575123974590e-02

 12	1.961927374280117e+00
	1.122403611917893e-05
	4.600566166617006e-03
	4.600226039344018e-03
	5.594140114746094e-05
	4.600567133034119e-03
	4.600227006541611e-03
	5.594134284211177e-05
	9.957376487237794e-03
	9.957345048921271e-03
	2.502169696742842e-05
	1.000535830918157e-02
	1.000532671953938e-02
	2.514220316460377e-05
	1.554311821015617e-02

 13	2.075263132145056e+00
	1.091325552445589e-05
	4.473195186710997e-03
	4.472845374080276e-03
	5.594137988200485e-05
	4.473196126324066e-03
	4.472846314496049e-03
	5.594132157667744e-05
	9.681657618818970e-03
	9.681625285208691e-03
	2.502168745572881e-05
	9.728310828375643e-03
	9.728278339130279e-03
	2.514219360709525e-05
	1.511274147658019e-02

 14	2.195146020234698e+00
	1.061108063628351e-05
	4.349351467891236e-03
	4.348991694166201e-03
	5.594135608870571e-05
	4.349352381441176e-03
	4.348992608541700e-03
	5.594129778340261e-05
	9.413573055125248e-03
	9.413539800726905e-03
	2.502167681336529e-05
	9.458934439881425e-03
	9.458901025415863e-03
	2.514218291347747e-05
	1.469428163554469e-02

 15	2.321954250288979e+00
	1.031727317302157e-05
	4.228937343635441e-03
	4.228567325235798e-03
	5.594132946708049e-05
	4.228938231842610e-03
	4.228568214292031e-03
	5.594127116180459e-05
	9.152911377409414e-03
	9.152877176002966e-03
	2.502166490593659e-05
	9.197016706183680e-03
	9.196982340151670e-03
	2.514217094870186e-05
	1.428740867828275e-02

 16	2.456087882417324e+00
	1.003160145120790e-05
	4.111857851065209e-03
	4.111477296344540e-03
	5.594129968092881e-05
	4.111858714629984e-03
	4.111478160782554e-03
	5.594124137568338e-05
	8.899467018592211e-03
	8.899431843211261e-03
	2.502165158306564e-05
	8.942351069632688e-03
	8.942315724938033e-03
	2.514215756166717e-05
	1.389180173029060e-02

 17	2.597970087225644e+00
	9.753840202863062e-06
	3.998020655993859e-03
	3.997629265010984e-03
	5.594126635408783e-05
	3.998021495597177e-03
	3.997630105512405e-03
	5.594120804887647e-05
	8.653040101012928e-03
	8.653003923923520e-03
	2.502163667650078e-05
	8.694736689412995e-03
	8.694700338188244e-03
	2.514214258331140e-05
	1.350714879806860e-02

 18	2.748048480853339e+00
	9.483770397854089e-06
	3.887335980041060e-03
	3.886933444325025e-03
	5.594122906568218e-05
	3.887336796344963e-03
	3.886934261552602e-03
	5.594117076050894e-05
	8.413436278653366e-03
	8.413399071332185e-03
	2.502161999799119e-05
	8.453978283007098e-03
	8.453940896591640e-03
	2.514212582447710e-05
	1.313314652284509e-02

 19	2.906796537132124e+00
	9.221179071177109e-06
	3.779716529756306e-03
	3.779302532064813e-03
	5.594118734480965e-05
	3.779717323404462e-03
	3.779303326662938e-03
	5.594112903967907e-05
	8.180466583709614e-03
	8.180428316821571e-03
	2.502160133690979e-05
	8.219885972027904e-03
	8.219847520945447e-03
	2.514210707352281e-05
	1.276949994108694e-02

 20	3.074715081321830e+00
	8.965859155022597e-06
	3.675077427694758e-03
	3.674651641765878e-03
	5.594114066459537e-05
	3.675078199312963e-03
	3.674652414361099e-03
	5.594108235951251e-05
	7.953947277389462e-03
	7.953907920764650e-03
	2.502158045759387e-05
	7.992275132297166e-03
	7.992235586232587e-03
	2.514208609365085e-05
	1.241592225160625e-02

 21	3.252333870135678e+00
	8.717609315490940e-06
	3.573336145390448e-03
	3.572898235687453e-03
	5.594108843553933e-05
	3.573336895587125e-03
	3.572898986888962e-03
	5.594103013050986e-05
	7.733699704816374e-03
	7.733659227426390e-03
	2.502155709636946e-05
	7.770966248050287e-03
	7.770925575825827e-03
	2.514206261991737e-05
	1.207213458907727e-02

 22	3.440213263039755e+00
	8.476233793829502e-06
	3.474412438173336e-03
	3.473962059622462e-03
	5.594102999807326e-05
	3.474413167540013e-03
	3.473962790022579e-03
	5.594097169310355e-05
	7.519550153924171e-03
	7.519508523857761e-03
	2.502153095822218e-05
	7.555784770151056e-03
	7.555742939701862e-03
	2.514203635588721e-05
	1.173786580378267e-02

 23	3.638945990099385e+00
	8.241542252065981e-06
	3.378228281778073e-03
	3.377765079499056e-03
	5.594096461423348e-05
	3.378228990889846e-03
	3.377765789673688e-03
	5.594090630933060e-05
	7.311329718229583e-03
	7.311286902667621e-03
	2.502150171307264e-05
	7.346560978202923e-03
	7.346517956551894e-03
	2.514200696989127e-05
	1.141285224741305e-02

 24	3.849159021949672e+00
	8.013349622916367e-06
	3.284707810693656e-03
	3.284231419722848e-03
	5.594089145834382e-05
	3.284708500109646e-03
	3.284232110231957e-03
	5.594083315351572e-05
	7.108874163372629e-03
	7.108830128562393e-03
	2.502146899160905e-05
	7.143129846446299e-03
	7.143085599678248e-03
	2.514197409083914e-05
	1.109683756474798e-02

 25	4.071515547789679e+00
	7.791475963849123e-06
	3.193777258204506e-03
	3.193287303210416e-03
	5.594080960659196e-05
	3.193777928468301e-03
	3.193287974598447e-03
	5.594075130184757e-05
	6.912023797317807e-03
	6.911978508546543e-03
	2.502143238062488e-05
	6.945330913334267e-03
	6.945285406569354e-03
	2.514193730353427e-05
	1.078957249105144e-02

 26	4.306717067640506e+00
	7.575746315190517e-06
	3.105364898074725e-03
	3.104860993065786e-03
	5.594071802536721e-05
	3.105365549714800e-03
	3.104861645862101e-03
	5.594065972071645e-05
	6.720623344111600e-03
	6.720576765679363e-03
	2.502139141780255e-05
	6.753008154681757e-03
	6.752961352048199e-03
	2.514189614343252e-05
	1.049081465501856e-02

 27	4.555505605468011e+00
	7.365990562159211e-06
	3.019400987828499e-03
	3.018882735852899e-03
	5.594061555821293e-05
	3.019401621358642e-03
	3.018883370572196e-03
	5.594055725366693e-05
	6.534521821094566e-03
	6.534473916286308e-03
	2.502134558587742e-05
	6.566009860285970e-03
	6.565961724891990e-03
	2.514185009077808e-05
	1.020032838711493e-02

 28	4.818666050152229e+00
	7.162043300721318e-06
	2.935817713580799e-03
	2.935284706418202e-03
	5.594050091122885e-05
	2.935818329500507e-03
	2.935285323560914e-03
	5.594044260680004e-05
	6.353572419468713e-03
	6.353523150525601e-03
	2.502129430610852e-05
	6.384188513918226e-03
	6.384139007823244e-03
	2.514179856404273e-05
	9.917884533153379e-03

 29	5.097028631688890e+00
	6.963743707160138e-06
	2.854549136373652e-03
	2.854000954218626e-03
	5.594037263673977e-05
	2.854549735168533e-03
	2.854001554271324e-03
	5.594031433244210e-05
	6.177632388123393e-03
	6.177581716213358e-03
	2.502123693097382e-05
	6.207400676590056e-03
	6.207349760775090e-03
	2.514174091258592e-05
	9.643260272957302e-03

 30	5.391471540435052e+00
	6.770935411257729e-06
	2.775531139974326e-03
	2.774967351111314e-03
	5.594022911502444e-05
	2.775531722116478e-03
	2.774967934547084e-03
	5.594017081087351e-05
	6.006562920625188e-03
	6.006510805812664e-03
	2.502117273599780e-05
	6.035506872998518e-03
	6.035454507335776e-03
	2.514167640844304e-05
	9.376238943962818e-03

 31	5.702923697662160e+00
	6.583466372988311e-06
	2.698701380092821e-03
	2.698121540562493e-03
	5.594006853387487e-05
	2.698701946041196e-03
	2.698122107841307e-03
	5.594001022988810e-05
	5.840229045279604e-03
	5.840175446494458e-03
	2.502110091060872e-05
	5.868371481058138e-03
	5.868317624279797e-03
	2.514160423713855e-05
	9.116609869616045e-03

 32	6.032367686157211e+00
	6.401188762626258e-06
	2.623999234977018e-03
	2.623402888233842e-03
	5.593988886572813e-05
	2.623999785177797e-03
	2.623403439802926e-03
	5.593983056192504e-05
	5.678499518174439e-03
	5.678444393180062e-03
	2.502102054790998e-05
	5.705862624428872e-03
	5.705807234095021e-03
	2.514152348740822e-05
	8.864168192424641e-03

 33	6.380842850117579e+00
	6.223958844174148e-06
	2.551365757344866e-03
	2.550752433905742e-03
	5.593968784208350e-05
	2.551366292231798e-03
	2.550752970199924e-03
	5.593962953848592e-05
	5.521246719116862e-03
	5.521190024477419e-03
	2.502093063323737e-05
	5.547852067951743e-03
	5.547795100417472e-03
	2.514143313970114e-05
	8.618714711526396e-03

 34	6.749448574119218e+00
	6.051636862018922e-06
	2.480743627613784e-03
	2.480112844697610e-03
	5.593946292488256e-05
	2.480744147608539e-03
	2.480113366139662e-03
	5.593940462151494e-05
	5.368346550378114e-03
	5.368288241424927e-03
	2.502083003135780e-05
	5.394215115905620e-03
	5.394156526287244e-03
	2.514133205331687e-05
	8.380055724640451e-03

 35	7.139347751502845e+00
	5.884086930726847e-06
	2.412077108388424e-03
	2.411428369546450e-03
	5.593921127449235e-05
	2.412077613900911e-03
	2.411428876547421e-03
	5.593915297138200e-05
	5.219678338161663e-03
	5.219618368958719e-03
	2.502071747214872e-05
	5.244830513000568e-03
	5.244770255140964e-03
	2.514121895201586e-05
	8.148002874269767e-03

 36	7.551770453120341e+00
	5.721176927890262e-06
	2.345312000168671e-03
	2.344644794905539e-03
	5.593892971388951e-05
	2.345312491597370e-03
	2.344645287865079e-03
	5.593887141106701e-05
	5.075124736712404e-03
	5.075063060020970e-03
	2.502059153457818e-05
	5.099580348024992e-03
	5.099518374458046e-03
	2.514109240792241e-05
	7.922372998026195e-03

 37	7.988017808015676e+00
	5.562778389941715e-06
	2.280395598240594e-03
	2.279709401625962e-03
	5.593861468859475e-05
	2.280396075972868e-03
	2.279709880932636e-03
	5.593855638609431e-05
	4.934571634986177e-03
	4.934508202228514e-03
	2.502045062878427e-05
	4.958349960065404e-03
	4.958286221979555e-03
	2.514095082351772e-05
	7.702987982952132e-03

 38	8.449466108283303e+00
	5.408766410853290e-06
	2.217276650713759e-03
	2.216570922984424e-03
	5.593826222185530e-05
	2.217277115126154e-03
	2.216571389016017e-03
	5.593820391971521e-05
	4.797908065800465e-03
	4.797842827022635e-03
	2.502029297602884e-05
	4.821027847219357e-03
	4.820962294420216e-03
	2.514079241149713e-05
	7.489674623715232e-03

 39	8.937571151054209e+00
	5.259019543641242e-06
	2.155905317668999e-03
	2.155179503821489e-03
	5.593786786451261e-05
	2.155905769127545e-03
	2.155179956945300e-03
	5.593780956277567e-05
	4.665026117388629e-03
	4.664959021222377e-03
	2.502011658627416e-05
	4.687505577723479e-03
	4.687438158595534e-03
	2.514061517223879e-05
	7.282264484554932e-03

 40	9.453872831307907e+00
	5.113419704598278e-06
	2.096233131381389e-03
	2.095486660754976e-03
	5.593742663892692e-05
	2.096233570241884e-03
	2.095487101328112e-03
	5.593736833764107e-05
	4.535820847281410e-03
	4.535751840905124e-03
	2.501991923310133e-05
	4.557677703419992e-03
	4.557608364887378e-03
	2.514041686860119e-05
	7.080593764861750e-03

 41	9.999999999999963e+00
	4.971852080177963e-06
	2.038212957583743e-03
	2.037445243433913e-03
	5.593693297625616e-05
	2.038213384192033e-03
	2.037445671803565e-03
	5.593687467547501e-05
	4.410190198440701e-03
	4.410119227539446e-03
	2.501969842565600e-05
	4.431441675486359e-03
	4.431370362972704e-03
	2.514019499773392e-05
	6.884503168272279e-03

 42	1.057767560283172e+01
	4.834205036457830e-06
	1.981798957736517e-03
	1.981009396798949e-03
	5.593638064630460e-05
	1.981799372428769e-03
	1.981009813302664e-03
	5.593632234608813e-05
	4.288034917571862e-03
	4.287961926296490e-03
	2.501945137727093e-05
	4.308697762353972e-03
	4.308624419741299e-03
	2.513994675954896e-05
	6.693837775164725e-03

 43	1.118872211587418e+01
	4.700370031109783e-06
	1.926946552270474e-03
	1.926134524315625e-03
	5.593576267906411e-05
	1.926946955373435e-03
	1.926134929281572e-03
	5.593570437947942e-05
	4.169258475541817e-03
	4.169183406467156e-03
	2.501917497037256e-05
	4.189348969742758e-03
	4.189273539329486e-03
	2.513966902145834e-05
	6.508446918441447e-03

 44	1.183506729519464e+01
	4.570241527808410e-06
	1.873612384768930e-03
	1.872777252147398e-03
	5.593507127696848e-05
	1.873612776600188e-03
	1.872777645894623e-03
	5.593501297809063e-05
	4.053766989831256e-03
	4.053689783913390e-03
	2.501886571723379e-05
	4.073300962739704e-03
	4.073223385197713e-03
	2.513935827893784e-05
	6.328184062486523e-03

 45	1.251875025862524e+01
	4.443716913009664e-06
	1.821754287056777e-03
	1.820895394235670e-03
	5.593429771676704e-05
	1.821754667925005e-03
	1.820895777074350e-03
	5.593423941868005e-05
	3.941469148950063e-03
	3.941389745482722e-03
	2.501851971608361e-05
	3.960461989850068e-03
	3.960382204180884e-03
	2.513901061142530e-05
	6.152906685187733e-03

 46	1.324192791886039e+01
	4.320696415034334e-06
	1.771331245163849e-03
	1.770447918254470e-03
	5.593343223979599e-05
	1.771331615369050e-03
	1.770448290486149e-03
	5.593337394259382e-05
	3.832276138745942e-03
	3.832194475316019e-03
	2.501813260202722e-05
	3.850742808950899e-03
	3.850660752440995e-03
	2.513862163300432e-05
	5.982476162913538e-03

 47	1.400688178817863e+01
	4.201083025392464e-06
	1.722303366130462e-03
	1.721394912407701e-03
	5.593246392928392e-05
	1.722303725964202e-03
	1.721395274325531e-03
	5.593240563307169e-05
	3.726101570536784e-03
	3.726017582979019e-03
	2.501769949216675e-05
	3.744056615077099e-03
	3.743972223252361e-03
	2.513818643726070e-05
	5.816757658336642e-03

 48	1.481602517625655e+01
	4.084782422286706e-06
	1.674631845623218e-03
	1.673697553037169e-03
	5.593138057316959e-05
	1.674632195368852e-03
	1.673697904926134e-03
	5.593132227806493e-05
	3.622861410997924e-03
	3.622775033348787e-03
	2.501721492424183e-05
	3.640318969970827e-03
	3.640232176550216e-03
	2.513769953562750e-05
	5.655620010996585e-03

 49	1.567191080378301e+01
	3.971702896234257e-06
	1.628278936329347e-03
	1.627318073009758e-03
	5.593016851073480e-05
	1.628279276262240e-03
	1.627318415146899e-03
	5.593011021686927e-05
	3.522473913735881e-03
	3.522385078186709e-03
	2.501667278803091e-05
	3.539447733325506e-03
	3.539358470173966e-03
	2.513715478845596e-05
	5.498935630494511e-03

 50	1.657723885589309e+01
	3.861755277748749e-06
	1.583207917097990e-03
	1.582219730852336e-03
	5.592881246115850e-05
	1.583208247485735e-03
	1.582220063506967e-03
	5.592875416867934e-05
	3.424859552480485e-03
	3.424768189329939e-03
	2.501606624866626e-05
	3.441362995656029e-03
	3.441271192736721e-03
	2.513654532796124e-05
	5.346580392213762e-03

 51	1.753486550082950e+01
	3.754852867025067e-06
	1.539383062796929e-03
	1.538366780603024e-03
	5.592729533188190e-05
	1.539383383899549e-03
	1.538367104036937e-03
	5.592723704095374e-05
	3.329940955827526e-03
	3.329846993433439e-03
	2.501538766091871e-05
	3.345987012726947e-03
	3.345892598052859e-03
	2.513586347209427e-05
	5.198433535460256e-03

 52	1.854781190070605e+01
	3.650911365571615e-06
	1.496769614853266e-03
	1.495724442347533e-03
	5.592559800443197e-05
	1.496769926923420e-03
	1.495724756815203e-03
	5.592553971523905e-05
	3.237642843464191e-03
	3.237546208194908e-03
	2.501462847339999e-05
	3.253244141470592e-03
	3.253147041055651e-03
	2.513510062828277e-05
	5.054377563916817e-03

 53	1.961927374280109e+01
	3.549848809736172e-06
	1.455333752446579e-03
	1.454258873409326e-03
	5.592369909508450e-05
	1.455334055729756e-03
	1.454259179158109e-03
	5.592364080783294e-05
	3.147891963809567e-03
	3.147792579994894e-03
	2.501377912151104e-05
	3.163060777327094e-03
	3.162960915136872e-03
	2.513424718586402e-05
	4.914298148305660e-03

 54	2.075263132145048e+01
	3.451585506072848e-06
	1.415042564322994e-03
	1.413937140162274e-03
	5.592157468745051e-05
	1.415042859057703e-03
	1.413937437432596e-03
	5.592151640237082e-05
	3.060617033002448e-03
	3.060514822884336e-03
	2.501282890783220e-05
	3.075365292938178e-03
	3.075262590840345e-03
	2.513329239589892e-05
	4.778084031153053e-03

 55	2.195146020234689e+01
	3.356043968499253e-06
	1.375864021198490e-03
	1.374727190434430e-03
	5.591919803374194e-05
	1.375864307616442e-03
	1.374727479459972e-03
	5.591913975109198e-05
	2.975748675168467e-03
	2.975643558851601e-03
	2.501176586850414e-05
	2.990087978126470e-03
	2.989982355841142e-03
	2.513222423690950e-05
	4.645626933549953e-03

 56	2.321954250288969e+01
	3.263148857194242e-06
	1.337766948719650e-03
	1.336597826471454e-03
	5.591653922111113e-05
	1.337767227045938e-03
	1.336598107479332e-03
	5.591648094117939e-05
	2.893219363898408e-03
	2.893111259300900e-03
	2.501057662398682e-05
	2.907160981091799e-03
	2.907052356141993e-03
	2.513102926491902e-05
	4.516821463802028e-03

 57	2.456087882417314e+01
	3.172826919188121e-06
	1.300721000949854e-03
	1.299518678428076e-03
	5.591356479905927e-05
	1.300721271403126e-03
	1.299518951639013e-03
	5.591350652216839e-05
	2.812963364869266e-03
	2.812852187673663e-03
	2.500924621240520e-05
	2.826518250755774e-03
	2.826406538418182e-03
	2.512969244599518e-05
	4.391565027862024e-03

 58	2.597970087225633e+01
	3.085006930598414e-06
	1.264696634348740e-03
	1.263460178355848e-03
	5.591023736346809e-05
	1.264696897141362e-03
	1.263460443984344e-03
	5.591017908997898e-05
	2.734916679539266e-03
	2.734802343144148e-03
	2.500775790349328e-05
	2.748095480185479e-03
	2.747980593441834e-03
	2.512819696929800e-05
	4.269757741436887e-03

 59	2.748048480853328e+01
	2.999619640465676e-06
	1.229665082212531e-03
	1.228393534655316e-03
	5.590651509232902e-05
	1.229665337550754e-03
	1.228393792909809e-03
	5.590645682264532e-05
	2.659016989847813e-03
	2.658899405320302e-03
	2.500609299093313e-05
	2.671830051026947e-03
	2.671711900516297e-03
	2.512652403841878e-05
	4.151302343661586e-03

 60	2.906796537132112e+01
	2.916597716145032e-06
	1.195598329542658e-03
	1.194290706960582e-03
	5.590235122771277e-05
	1.195598577626770e-03
	1.194290958043606e-03
	5.590229296228594e-05
	2.585203603851013e-03
	2.585082679880536e-03
	2.500423056064813e-05
	2.597660978878716e-03
	2.597539472850975e-03
	2.512465263855746e-05
	4.036104112231063e-03

 61	3.074715081321818e+01
	2.835875690210405e-06
	1.162469088309906e-03
	1.161124381424175e-03
	5.589769349794704e-05
	1.162469329334385e-03
	1.161124625532511e-03
	5.589763523728198e-05
	2.513417402223255e-03
	2.513293045077010e-03
	2.500214723235230e-05
	2.525528859535617e-03
	2.525403903806807e-03
	2.512255927682722e-05
	3.924070779881425e-03

 62	3.252333870135666e+01
	2.757389908829540e-06
	1.130250773081239e-03
	1.128867946370133e-03
	5.589248347334102e-05
	1.130251007234897e-03
	1.128868183694956e-03
	5.589242521800230e-05
	2.443600785555289e-03
	2.443472899035884e-03
	2.499981687137611e-05
	2.455375816032897e-03
	2.455247313942587e-03
	2.512021769269235e-05
	3.815112452111379e-03

 63	3.440213263039742e+01
	2.681078481569129e-06
	1.098917476976402e-03
	1.097495468283262e-03
	5.588665584811397e-05
	1.098917704442529e-03
	1.097495699010285e-03
	5.588659759873302e-05
	2.375697622379417e-03
	2.375566107785271e-03
	2.499721026748458e-05
	2.387145446420956e-03
	2.387013298792474e-03
	2.511759853523966e-05
	3.709141526035117e-03

 64	3.638945990099371e+01
	2.606881232590443e-06
	1.068443947921541e-03
	1.066981668102809e-03
	5.588013764045181e-05
	1.068444168878038e-03
	1.066981892412418e-03
	5.588007939773459e-05
	2.309653197852923e-03
	2.309517953942084e-03
	2.499429477707537e-05
	2.320782772201495e-03
	2.320646877305570e-03
	2.511466900365321e-05
	3.606072610258580e-03

 65	3.849159021949657e+01
	2.534739653196996e-06
	1.038805565167362e-03
	1.037301897789197e-03
	5.587284730182641e-05
	1.038805779786874e-03
	1.037302115856581e-03
	5.587278906656227e-05
	2.245414163031787e-03
	2.245275085989935e-03
	2.499103392479143e-05
	2.256234187356801e-03
	2.256094440879411e-03
	2.511139244690848e-05
	3.505822445672417e-03

 66	4.071515547789663e+01
	2.464596855696793e-06
	1.009978316039902e-03
	1.008432117133181e-03
	5.586469372587378e-05
	1.009978524489943e-03
	1.008432329128461e-03
	5.586463549894522e-05
	2.182928484668263e-03
	2.182785468081776e-03
	2.498738696020809e-05
	2.193447407905409e-03
	2.193303702920719e-03
	2.510772791832429e-05
	3.408309827057194e-03

 67	4.306717067640490e+01
	2.396397528542820e-06
	9.819387728928668e-04
	9.803488707778633e-04
	5.585557514624032e-05
	9.819389753359428e-04
	9.803490768662132e-04
	5.585551692863387e-05
	2.122145395468160e-03
	2.121998330303269e-03
	2.498330836485718e-05
	2.132371421919686e-03
	2.132223648869101e-03
	2.510362968021281e-05
	3.313455525399926e-03

 68	4.555505605467994e+01
	2.330087892716357e-06
	9.546640702317938e-04
	9.530292654254721e-04
	5.584537791187846e-05
	9.546642668255167e-04
	9.530294657672351e-04
	5.584531970469678e-05
	2.063015344746893e-03
	2.062864119336086e-03
	2.497874730443633e-05
	2.072956439944106e-03
	2.072804486622613e-03
	2.509904665345057e-05
	3.221182210825835e-03

 69	4.818666050152211e+01
	2.265615659318738e-06
	9.281318819821408e-04
	9.264509472029228e-04
	5.583397512731636e-05
	9.281320728793432e-04
	9.264511419537245e-04
	5.583391693179190e-05
	2.005489949427872e-03
	2.005334449464902e-03
	2.497364702062328e-05
	2.015153845757522e-03
	2.014997597308668e-03
	2.509392180636385e-05
	3.131414376056219e-03

 70	5.097028631688872e+01
	2.202929988338110e-06
	9.023203988759607e-04
	9.005920791629498e-04
	5.582122514445436e-05
	9.023205842248017e-04
	9.005922684738039e-04
	5.582116696196429e-05
	1.949521945332801e-03
	1.949362053877829e-03
	2.496794415648043e-05
	1.958916147428737e-03
	1.958755486349806e-03
	2.508819147688422e-05
	3.044078260312477e-03

 71	5.391471540435032e+01
	2.141981448558676e-06
	8.772083059352055e-04
	8.754313189012860e-04
	5.580696989147537e-05
	8.772084858792754e-04
	8.754315029186977e-04
	5.580691172355849e-05
	1.895065138721402e-03
	1.894900736218047e-03
	2.496156800900310e-05
	1.904196928622720e-03
	1.904031734781855e-03
	2.508178462149709e-05
	2.959101773598621e-03

 72	5.702923697662139e+01
	2.082721978580790e-06
	8.527747600342004e-04
	8.509477962751626e-04
	5.579103302352911e-05
	8.527749347126176e-04
	8.509479751412255e-04
	5.579097487190445e-05
	1.842074358048436e-03
	1.841905322354740e-03
	2.495443970195011e-05
	1.850950800125150e-03
	1.850780950792473e-03
	2.507462198408855e-05
	2.876414421310579e-03

 73	6.032367686157188e+01
	2.025104848921178e-06
	8.289993675295999e-04
	8.271210912145202e-04
	5.577321787899547e-05
	8.289995370771055e-04
	8.271212650670087e-04
	5.577315974558305e-05
	1.790505405919101e-03
	1.790331612354710e-03
	2.494647127171290e-05
	1.799133351566307e-03
	1.798958721461324e-03
	2.506661517741200e-05
	2.795947229141002e-03

 74	6.380842850117555e+01
	1.969084625163389e-06
	8.058621619535663e-04
	8.039312116251178e-04
	5.575330522440615e-05
	8.058623265006149e-04
	8.039313805975759e-04
	5.575324711135013e-05
	1.740315011240730e-03
	1.740136332652909e-03
	2.493756465865492e-05
	1.748701103342199e-03
	1.748521564700137e-03
	2.505766566956981e-05
	2.717632668274412e-03

 75	6.749448574119192e+01
	1.914617132129403e-06
	7.833435817752716e-04
	7.813585713924944e-04
	5.573105077056890e-05
	7.833437414481163e-04
	7.813587356143181e-04
	5.573099268026309e-05
	1.691460781589811e-03
	1.691277088441271e-03
	2.492761059611358e-05
	1.699611458752053e-03
	1.699426881412105e-03
	2.504766366766459e-05
	2.641404580900171e-03

 76	7.139347751502818e+01
	1.861659419044151e-06
	7.614244482475398e-04
	7.593839685078881e-04
	5.570618244217878e-05
	7.614246031683136e-04
	7.593841281044035e-04
	5.570612437729507e-05
	1.643901155839627e-03
	1.643712316321518e-03
	2.491648738914095e-05
	1.651822656397683e-03
	1.651632907916548e-03
	2.503648689065821e-05
	2.567198106111557e-03

 77	7.551770453120312e+01
	1.810169725665468e-06
	7.400859433700375e-04
	7.379885633522668e-04
	5.567839738332678e-05
	7.400860936568306e-04
	7.379887184448043e-04
	5.567833934684657e-05
	1.597595357126320e-03
	1.597401237300213e-03
	2.490405957511539e-05
	1.605293722922906e-03
	1.605098668717454e-03
	2.502399922353292e-05
	2.494949606309708e-03

 78	7.988017808015645e+01
	1.760107449352751e-06
	7.193095880183302e-04
	7.171538571930169e-04
	5.564735868195284e-05
	7.193097337852645e-04
	7.171540078989792e-04
	5.564730067720188e-05
	1.552503346270962e-03
	1.552303810244113e-03
	2.489017645864163e-05
	1.559984426211173e-03
	1.559783929734551e-03
	2.501004924513538e-05
	2.424596594293004e-03

 79	8.449466108283271e+01
	1.711433113048369e-06
	6.990772203100652e-04
	6.968616709702661e-04
	5.561269179761002e-05
	6.990773616673637e-04
	6.968618174031935e-04
	5.561263382829681e-05
	1.508585775823737e-03
	1.508380685962446e-03
	2.487467051374664e-05
	1.515855229208301e-03
	1.515649152164320e-03
	2.499446862267742e-05
	2.356077661287889e-03

 80	8.937571151054175e+01