Title: simulation of the telescopic ota designed with the sekv model by c. enz
Date: Fri Jul 25 15:53:02  2025
Plotname: Noise Spectral Density Curves
Flags: real
No. Variables: 33
No. Points: 329
Variables:
	0	frequency	frequency grid=3
	1	inoise_spectrum	voltage-density
	2	onoise_n1a	voltage-density
	3	onoise_n1a_flicker	voltage-density
	4	onoise_n1a_thermal	voltage-density
	5	onoise_n1b	voltage-density
	6	onoise_n1b_flicker	voltage-density
	7	onoise_n1b_thermal	voltage-density
	8	onoise_n2a	voltage-density
	9	onoise_n2a_flicker	voltage-density
	10	onoise_n2a_thermal	voltage-density
	11	onoise_n2b	voltage-density
	12	onoise_n2b_flicker	voltage-density
	13	onoise_n2b_thermal	voltage-density
	14	onoise_n3a	voltage-density
	15	onoise_n3a_flicker	voltage-density
	16	onoise_n3a_thermal	voltage-density
	17	onoise_n3b	voltage-density
	18	onoise_n3b_flicker	voltage-density
	19	onoise_n3b_thermal	voltage-density
	20	onoise_n4a	voltage-density
	21	onoise_n4a_flicker	voltage-density
	22	onoise_n4a_thermal	voltage-density
	23	onoise_n4b	voltage-density
	24	onoise_n4b_flicker	voltage-density
	25	onoise_n4b_thermal	voltage-density
	26	onoise_n5a	voltage-density
	27	onoise_n5a_flicker	voltage-density
	28	onoise_n5a_thermal	voltage-density
	29	onoise_n5b	voltage-density
	30	onoise_n5b_flicker	voltage-density
	31	onoise_n5b_thermal	voltage-density
	32	onoise_spectrum	voltage-density
Values:
 0	1.000000000000000e+00
	1.872642020836614e-05
	1.134330341540922e+00
	1.134317971715125e+00
	5.297431871375759e-03
	1.134330177951433e+00
	1.134317808123221e+00
	5.297432006304064e-03
	1.402749810913620e+00
	1.402747763063610e+00
	2.396922659760995e-03
	1.402819248616817e+00
	1.402817200665725e+00
	2.397041140788101e-03
	5.805489524793228e-03
	5.805485600723153e-03
	6.749983706285829e-06
	5.806147413107914e-03
	5.806143488366321e-03
	6.750943717948453e-06
	8.118408628714969e-04
	8.118405720012167e-04
	6.872267994377329e-07
	8.118381389565952e-04
	8.118378480950456e-04
	6.872153328260362e-07
	2.557958722628395e-05
	2.557943329606923e-05
	8.874074044119511e-08
	2.573750850245473e-05
	2.573735375046356e-05
	8.925154020289872e-08
	2.551291415577534e+00

 1	1.057767560283176e+00
	1.820789636383108e-05
	1.101957201840401e+00
	1.101944490873268e+00
	5.292799068591122e-03
	1.101957042919897e+00
	1.101944331950283e+00
	5.292799203401426e-03
	1.362715389435041e+00
	1.362713285107809e+00
	2.394826461028792e-03
	1.362782845389050e+00
	1.362780740957949e+00
	2.394944838439800e-03
	5.639800838906644e-03
	5.639796806615381e-03
	6.744080592466671e-06
	5.640439951102807e-03
	5.640435918121508e-03
	6.745039764566610e-06
	7.886709081309954e-04
	7.886706092388559e-04
	6.866257938658226e-07
	7.886682619536375e-04
	7.886679630704694e-04
	6.866143372798368e-07
	2.484955935592743e-05
	2.484940118048693e-05
	8.866315455349563e-08
	2.500297363531076e-05
	2.500281461543010e-05
	8.917350772378308e-08
	2.478478198931127e+00

 2	1.118872211587422e+00
	1.770373045426894e-05
	1.070398619874545e+00
	1.070385559692864e+00
	5.287629934488077e-03
	1.070398465505553e+00
	1.070385405321324e+00
	5.287630069166717e-03
	1.323688277423588e+00
	1.323686115282533e+00
	2.392487589106743e-03
	1.323753801491369e+00
	1.323751639243590e+00
	2.392605850906200e-03
	5.478281053946855e-03
	5.478276910873208e-03
	6.737494085693600e-06
	5.478901862446326e-03
	5.478897718663685e-03
	6.738452321029378e-06
	7.660839333811682e-04
	7.660836262773214e-04
	6.859552109503373e-07
	7.660813629864897e-04
	7.660810558918607e-04
	6.859437655519011e-07
	2.413790043188679e-05
	2.413773791074812e-05
	8.857658671023830e-08
	2.428692111927039e-05
	2.428675773049147e-05
	8.908644158815762e-08
	2.407497054620029e+00

 3	1.183506729519469e+00
	1.721352491692976e-05
	1.039625460941210e+00
	1.039612043479340e+00
	5.281864248104172e-03
	1.039625311010460e+00
	1.039611893545971e+00
	5.281864382635955e-03
	1.285632445626374e+00
	1.285630224336140e+00
	2.389878795888025e-03
	1.285696085887395e+00
	1.285693864487518e+00
	2.389996928733593e-03
	5.320781057346388e-03
	5.320776800931554e-03
	6.730147452448289e-06
	5.321384017682202e-03
	5.321379760538977e-03
	6.731104642915760e-06
	7.440590866877601e-04
	7.440587711825352e-04
	6.852072383316437e-07
	7.440565901879598e-04
	7.440562746922048e-04
	6.851958054103611e-07
	2.344395348379554e-05
	2.344378651657929e-05
	8.848002839013942e-08
	2.358868992801107e-05
	2.358852206941858e-05
	8.898932746959851e-08
	2.338282453646980e+00

 4	1.251875025862529e+00
	1.673689319759052e-05
	1.009608946182444e+00
	1.009595163415546e+00
	5.275435485576207e-03
	1.009608800580814e+00
	1.009595017811226e+00
	5.275435619944246e-03
	1.248512304878775e+00
	1.248510023110756e+00
	2.386969981399866e-03
	1.248574107650803e+00
	1.248571825770155e+00
	2.387087970461351e-03
	5.167153557941737e-03
	5.167149185639840e-03
	6.721955928084619e-06
	5.167739108949845e-03
	5.167734735899725e-03
	6.722911953516883e-06
	7.225757708111500e-04
	7.225754467158344e-04
	6.843732459774136e-07
	7.225733463899491e-04
	7.225730223043614e-04
	6.843618269690304e-07
	2.276706957046576e-05
	2.276689805729887e-05
	8.837236552662288e-08
	2.290762711395920e-05
	2.290745468514689e-05
	8.888104488886131e-08
	2.270769667409277e+00

 5	1.324192791886045e+00
	1.627345944573559e-05
	9.803206286702771e-01
	9.803064726527191e-01
	5.268270273162652e-03
	9.803204872927500e-01
	9.803063312724293e-01
	5.268270407348192e-03
	1.212292676536590e+00
	1.212290332975285e+00
	2.383727946313231e-03
	1.212352686396007e+00
	1.212350342719024e+00
	2.383845775119381e-03
	5.017252963568517e-03
	5.017248472858793e-03
	6.712826019825886e-06
	5.017821527590258e-03
	5.017817036112049e-03
	6.713780746764397e-06
	7.016136261140906e-04
	7.016132932418335e-04
	6.834437152422158e-07
	7.016112720222700e-04
	7.016109391600042e-04
	6.834323117401288e-07
	2.210660723715349e-05
	2.210643107914694e-05
	8.825236933478038e-08
	2.224308726220473e-05
	2.224291016375564e-05
	8.876035798804017e-08
	2.204894713917638e+00

 6	1.400688178817868e+00
	1.582285821817789e-05
	9.517323737398028e-01
	9.517178366493080e-01
	5.260287821086174e-03
	9.517322364854169e-01
	9.517176993920852e-01
	5.260287955068393e-03
	1.176938768161220e+00
	1.176936361511544e+00
	2.380116135774250e-03
	1.176997027962146e+00
	1.176994621193678e+00
	2.380233786046888e-03
	4.870935280465985e-03
	4.870930668866790e-03
	6.702654785409791e-06
	4.871487263521699e-03
	4.871482651133332e-03
	6.703608065750678e-06
	6.811525164726682e-04
	6.811521746395179e-04
	6.824081654050555e-07
	6.811502310290853e-04
	6.811498892061953e-04
	6.823967791779991e-07
	2.146193207519841e-05
	2.146175117499640e-05
	8.811868684197740e-08
	2.159443204742233e-05
	2.159425018146093e-05
	8.862590600666715e-08
	2.140594313568663e+00

 7	1.481602517625661e+00
	1.538473419088658e-05
	9.238163445916322e-01
	9.238014187797925e-01
	5.251399345676967e-03
	9.238162113634417e-01
	9.238012855486890e-01
	5.251399479432790e-03
	1.142416155721845e+00
	1.142413684717487e+00
	2.376094377942087e-03
	1.142472706614368e+00
	1.142470235488042e+00
	2.376211829417323e-03
	4.728058039592411e-03
	4.728053304677239e-03
	6.691329096747492e-06
	4.728593831558521e-03
	4.728589095833072e-03
	6.692280766298456e-06
	6.611725189851143e-04
	6.611721680112065e-04
	6.812550787132492e-07
	6.611703005737214e-04
	6.611699496103481e-04
	6.812437117203185e-07
	2.083241639467860e-05
	2.083223065708693e-05
	8.796983120019324e-08
	2.096102990450529e-05
	2.096084317532914e-05
	8.847619353828937e-08
	2.077805856769746e+00

 8	1.567191080378307e+00
	1.495874187879447e-05
	8.965449943298204e-01
	8.965296723796106e-01
	5.241507489803894e-03
	8.965448650348518e-01
	8.965295430816518e-01
	5.241507623307765e-03
	1.108690773756660e+00
	1.108688237169609e+00
	2.371618621752116e-03
	1.108745655204592e+00
	1.108743118492336e+00
	2.371735851988597e-03
	4.588480255922025e-03
	4.588475395337752e-03
	6.678724901454941e-06
	4.589000230697543e-03
	4.588995369281490e-03
	6.679674778379276e-06
	6.416539182739194e-04
	6.416535579848292e-04
	6.799718251918258e-07
	6.416517653486036e-04
	6.416514050703277e-04
	6.799604796066967e-07
	2.021743904730078e-05
	2.021724838000224e-05
	8.780417199016322e-08
	2.034225585036232e-05
	2.034206416516138e-05
	8.830958077880074e-08
	2.016467386039231e+00

 9	1.657723885589316e+00
	1.454454536336383e-05
	8.698910657985766e-01
	8.698753405895193e-01
	5.230505754826641e-03
	8.698909403477875e-01
	8.698752151356612e-01
	5.230505888050290e-03
	1.075728915179152e+00
	1.075726311830480e+00
	2.366640679891993e-03
	1.075782164977764e+00
	1.075779561500592e+00
	2.366757664066443e-03
	4.452062427639960e-03
	4.452057439127521e-03
	6.664706499038099e-06
	4.452566943322377e-03
	4.452561953956265e-03
	6.665654382209605e-06
	6.225772063775210e-04
	6.225768366057953e-04
	6.785445889549405e-07
	6.225751174538958e-04
	6.225747476932689e-04
	6.785332671779153e-07
	1.961638542095618e-05
	1.961618973532124e-05
	8.761992570164152e-08
	1.973749147843999e-05
	1.973729474811155e-05
	8.812427395190852e-08
	1.956517595648164e+00

 10	1.753486550082957e+00
	1.414181802769610e-05
	8.438276007678748e-01
	8.438114655494965e-01
	5.218277961034874e-03
	8.438274790761103e-01
	8.438113438545832e-01
	5.218278093947071e-03
	1.043497242646302e+00
	1.043494571418328e+00
	2.361107984667211e-03
	1.043548896940630e+00
	1.043546225580805e+00
	2.361224695357906e-03
	4.318666583213019e-03
	4.318661464630702e-03
	6.649125853412758e-06
	4.319155982253268e-03
	4.319150862795019e-03
	6.650071520634119e-06
	6.039230893283624e-04
	6.039227099152471e-04
	6.769582982076608e-07
	6.039210629885553e-04
	6.039206835868283e-04
	6.769470028923424e-07
	1.902864764937018e-05
	1.902844686137067e-05
	8.741514670935160e-08
	1.914612516966667e-05
	1.914592330973396e-05
	8.791831623314034e-08
	1.897895852290088e+00

 11	1.854781190070612e+00
	1.375024229897625e-05
	8.183279601983693e-01
	8.183114086725625e-01
	5.204697757832316e-03
	8.183278421843168e-01
	8.183112906552797e-01
	5.204697890398616e-03
	1.011962813628618e+00
	1.011960073478540e+00
	2.354963366374664e-03
	1.012012906933006e+00
	1.012010166647675e+00
	2.355079773333957e-03
	4.188156385115488e-03
	4.188151134465064e-03
	6.631821968731464e-06
	4.188630994521776e-03
	4.188625742972821e-03
	6.632765174918649e-06
	5.856725016642928e-04
	5.856721124616693e-04
	6.751965617046170e-07
	5.856705365549595e-04
	5.856701473640180e-04
	6.751852957787365e-07
	1.845362506659280e-05
	1.845341909782647e-05
	8.718771906069585e-08
	1.856755254974912e-05
	1.856734548139135e-05
	8.768957949028327e-08
	1.840542240670848e+00

 12	1.961927374280117e+00
	1.336950939804913e-05
	7.933658575035026e-01
	7.933488839163454e-01
	5.189628209921989e-03
	7.933657430896397e-01
	7.933487694991699e-01
	5.189628342104456e-03
	9.810931215536628e-01
	9.810903115287594e-01
	2.348144866064391e-03
	9.811416867733412e-01
	9.811388766097355e-01
	2.348260935981974e-03
	4.060397300142049e-03
	4.060391915597900e-03
	6.612620362146872e-06
	4.060857431675355e-03
	4.060852046209762e-03
	6.613560837397631e-06
	5.678066302388378e-04
	5.678062311113819e-04
	6.732416150640395e-07
	5.678047250671068e-04
	5.678043259516308e-04
	6.732303817486354e-07
	1.789072495875903e-05
	1.789051373759181e-05
	8.693534955515210e-08
	1.800117724557403e-05
	1.800096489677466e-05
	8.743575732294466e-08
	1.784397638331995e+00

 13	2.075263132145056e+00
	1.299931909592994e-05
	7.689154068619740e-01
	7.688980061054662e-01
	5.172921491142172e-03
	7.689152959745119e-01
	7.688978952146082e-01
	5.172921622899109e-03
	9.508561555620044e-01
	9.508532748164765e-01
	2.340585597009895e-03
	9.509032240176299e-01
	9.509003431299090e-01
	2.340701293269214e-03
	3.935256846705993e-03
	3.935251326647382e-03
	6.591332673676023e-06
	3.935702797115429e-03
	3.935697276112184e-03
	6.592270121300721e-06
	5.503069488061806e-04
	5.503065396337551e-04
	6.710742810500307e-07
	5.503051023456642e-04
	5.503046931855202e-04
	6.710630838911723e-07
	1.733936365226045e-05
	1.733914711509188e-05
	8.665556261362319e-08
	1.744641198009777e-05
	1.744619428691681e-05
	8.715435990236926e-08
	1.729403824325595e+00

 14	2.195146020234698e+00
	1.263937947705704e-05
	7.449511887483378e-01
	7.449333564723649e-01
	5.154418723592168e-03
	7.449510813171535e-01
	7.449332490377005e-01
	5.154418854877828e-03
	9.212204815562087e-01
	9.212175293697149e-01
	2.332213671917561e-03
	9.212660830124156e-01
	9.212631306802025e-01
	2.332328954348644e-03
	3.812604930277461e-03
	3.812599273324049e-03
	6.567756461215370e-06
	3.813036981566472e-03
	3.813031323644999e-03
	6.568690555726983e-06
	5.331552649319828e-04
	5.331548456122698e-04
	6.686739487062161e-07
	5.331534760124511e-04
	5.331530567053240e-04
	6.686627915879668e-07
	1.679896799373873e-05
	1.679874608639479e-05
	8.634569759897808e-08
	1.690268006147714e-05
	1.690245696945137e-05
	8.684271127655699e-08
	1.675503626615979e+00

 15	2.321954250288979e+00
	1.228940670910041e-05
	7.214483348593418e-01
	7.214300675939809e-01
	5.133950005711443e-03
	7.214482308178979e-01
	7.214299635489720e-01
	5.133950136475750e-03
	8.921553472355832e-01
	8.921523230334873e-01
	2.322952215631606e-03
	8.921995099347315e-01
	8.921964855833615e-01
	2.323067040264503e-03
	3.692314278093267e-03
	3.692308483143913e-03
	6.541675236325345e-06
	3.692732697846700e-03
	3.692726901905670e-03
	6.542605621454070e-06
	5.163337807785536e-04
	5.163333512299302e-04
	6.660185769930496e-07
	5.163320482932711e-04
	5.163316187575407e-04
	6.660074641718158e-07
	1.626897726211077e-05
	1.626874994136530e-05
	8.600290927573136e-08
	1.636941730689897e-05
	1.636918877257142e-05
	8.649794983258860e-08
	1.622641113106010e+00

 16	2.456087882417324e+00
	1.194912481914403e-05
	6.983826345521322e-01
	6.983639298401477e-01
	5.111334679147228e-03
	6.983825338373832e-01
	6.983638291217484e-01
	5.111334809335506e-03
	8.636308137332807e-01
	8.636277171085861e-01
	2.312719485883334e-03
	8.636735644357237e-01
	8.636704676581803e-01
	2.312833804707538e-03
	3.574260983958819e-03
	3.574255050233610e-03
	6.512858804269534e-06
	3.574666025717194e-03
	3.574660090976560e-03
	6.513785091001066e-06
	4.998251692947764e-04
	4.998247294594312e-04
	6.630847294132589e-07
	4.998234921917008e-04
	4.998230523695574e-04
	6.630736655320316e-07
	1.574884557099564e-05
	1.574861280621844e-05
	8.562417229616219e-08
	1.584607445983898e-05
	1.584584045241595e-05
	8.611703280856701e-08
	1.570761831047101e+00

 17	2.597970087225644e+00
	1.161826547606607e-05
	6.757306646700724e-01
	6.757115212091105e-01
	5.086381889664713e-03
	6.757305672223500e-01
	6.757114237576523e-01
	5.086382019217426e-03
	8.356179161750369e-01
	8.356147469119271e-01
	2.301429127085504e-03
	8.356592802073323e-01
	8.356561107877882e-01
	2.301542887821907e-03
	3.458325172750887e-03
	3.458319099836242e-03
	6.481063978730431e-06
	3.458717076468701e-03
	3.458711002514813e-03
	6.481985743460448e-06
	4.836126671367787e-04
	4.836122169840540e-04
	6.598476467734510e-07
	4.836110444232095e-04
	4.836105942839964e-04
	6.598366368922838e-07
	1.523804479467171e-05
	1.523780656959737e-05
	8.520629059269109e-08
	1.533212013408319e-05
	1.533188063721240e-05
	8.569674574005748e-08
	1.519813099051454e+00

 18	2.748048480853339e+00
	1.129656777894482e-05
	6.534699442382738e-01
	6.534503620318416e-01
	5.058891501880083e-03
	6.534698500011521e-01
	6.534502677908983e-01
	5.058891630732597e-03
	8.080888549919124e-01
	8.080856130907451e-01
	2.288990584220489e-03
	8.081288563045087e-01
	8.081256142433217e-01
	2.289103730113806e-03
	3.344391792189241e-03
	3.344385580085811e-03
	6.446035747345653e-06
	3.344770784786209e-03
	3.344764571619716e-03
	6.446952530206596e-06
	4.676801853917424e-04
	4.676797249216855e-04
	6.562813658518421e-07
	4.676786161284334e-04
	4.676781556721976e-04
	6.562704154633209e-07
	1.473606805645091e-05
	1.473582437105684e-05
	8.474591270527976e-08
	1.482704432363847e-05
	1.482679933729720e-05
	8.523371787571327e-08
	1.469744355039533e+00

 19	2.906796537132124e+00
	1.098377805132390e-05
	6.315791148585913e-01
	6.315590953743976e-01
	5.028655430050469e-03
	6.315790237787240e-01
	6.315590042906233e-01
	5.028655558132850e-03
	7.810172190126075e-01
	7.810139047161284e-01
	2.275309704981216e-03
	7.810558802485699e-01
	7.810525657884977e-01
	2.275422174622171e-03
	3.232351536153170e-03
	3.232345185326064e-03
	6.407508967422036e-06
	3.232717832161804e-03
	3.232711480247897e-03
	6.408420270835919e-06
	4.520124386970882e-04
	4.520119679441738e-04
	6.523588920449223e-07
	4.520109219934451e-04
	4.520104512546606e-04
	6.523480070882545e-07
	1.424243379593690e-05
	1.424218466841288e-05
	8.423955407482133e-08
	1.433036249510095e-05
	1.433011203757610e-05
	8.472444459898895e-08
	1.420507561988412e+00

 20	3.074715081321830e+00
	1.067964964117436e-05
	6.100381467317459e-01
	6.100176930653871e-01
	4.995459446975879e-03
	6.100380587586747e-01
	6.100176050883241e-01
	4.995459574212734e-03
	7.543782402452517e-01
	7.543748540656930e-01
	2.260289558242855e-03
	7.544155828216025e-01
	7.544121964749027e-01
	2.260401285430817e-03
	3.122101899128473e-03
	3.122095410559186e-03
	6.365210670821822e-06
	3.122455701465048e-03
	3.122449211785388e-03
	6.366115958387797e-06
	4.365950926882117e-04
	4.365946117251917e-04
	6.480524340225222e-07
	4.365936277052888e-04
	4.365931467567051e-04
	6.480416209055812e-07
	1.375669041527270e-05
	1.375643588405692e-05
	8.368362735189482e-08
	1.384162026258840e-05
	1.384136437252335e-05
	8.416531791135438e-08
	1.372057671317616e+00

 21	3.252333870135678e+00
	1.038394272639580e-05
	5.888285689995073e-01
	5.888076860408034e-01
	4.959085528845951e-03
	5.888284840854366e-01
	5.888076011226572e-01
	4.959085655156336e-03
	7.281490787315739e-01
	7.281456214781914e-01
	2.243831495032825e-03
	7.281851229347311e-01
	7.281816655106993e-01
	2.243942408690902e-03
	3.013548355124797e-03
	3.013541730363975e-03
	6.318863051772194e-06
	3.013889855993652e-03
	3.013883230099150e-03
	6.319761747578612e-06
	4.214149288667352e-04
	4.214144378085493e-04
	6.433337079331061e-07
	4.214135148062020e-04
	4.214130237627556e-04
	6.433229735301058e-07
	1.327842147120286e-05
	1.327816159705088e-05
	8.307448166784684e-08
	1.336039861185677e-05
	1.336013735033142e-05
	8.355266592942458e-08
	1.324353140971823e+00

 22	3.440213263039755e+00
	1.009642412570341e-05
	5.679337215540040e-01
	5.679124161525519e-01
	4.919314784767840e-03
	5.679336396535414e-01
	5.679123342479314e-01
	4.919314910065238e-03
	7.023091339445902e-01
	7.023056067510717e-01
	2.225836474050776e-03
	7.023438990412225e-01
	7.023403716736024e-01
	2.225946498206413e-03
	2.906605646438905e-03
	2.906598887658865e-03
	6.268187199660861e-06
	2.906935028382151e-03
	2.906928268445497e-03
	6.269078688126867e-06
	4.064600248125582e-04
	4.064595238202274e-04
	6.381743174326389e-07
	4.064586609195948e-04
	4.064581599423015e-04
	6.381636690967400e-07
	1.280725135342115e-05
	1.280698622146500e-05
	8.240845171240206e-08
	1.288631961370445e-05
	1.288605306630530e-05
	8.288280224506545e-08
	1.277356501782822e+00

 23	3.638945990099385e+00
	9.816867114751616e-06
	5.473390235686633e-01
	5.473173046943965e-01
	4.875931004309375e-03
	5.473389446385178e-01
	5.473172257600126e-01
	4.875931128501756e-03
	6.768403768604881e-01
	6.768367812115347e-01
	2.206206666821183e-03
	6.768738812248076e-01
	6.768702853983736e-01
	2.206315720666120e-03
	2.801199157986221e-03
	2.801192268031887e-03
	6.212907619319507e-06
	2.801516595090136e-03
	2.801509703956741e-03
	6.213791245681430e-06
	3.917199463794457e-04
	3.917194356638474e-04
	6.325462139151918e-07
	3.917186319324195e-04
	3.917181212321507e-04
	6.325356594647019e-07
	1.234285133885993e-05
	1.234258106060503e-05
	8.168191715684068e-08
	1.241905251563915e-05
	1.241878079446690e-05
	8.215208569061625e-08
	1.231034961436361e+00

 24	3.849159021949672e+00
	9.545051247349318e-06
	5.270322518365812e-01
	5.270101307303451e-01
	4.828724833968128e-03
	5.270321758352243e-01
	5.270100547246711e-01
	4.828724956958134e-03
	6.517276941534722e-01
	6.517240319097266e-01
	2.184847347415325e-03
	6.517599554115636e-01
	6.517562929870503e-01
	2.184955345458953e-03
	2.697266341797873e-03
	2.697259324234542e-03
	6.152757552673088e-06
	2.697572001062268e-03
	2.697564982298038e-03
	6.153632624231330e-06
	3.771859468913288e-04
	3.771854267167380e-04
	6.264222383104388e-07
	3.771846811983036e-04
	3.771841610393261e-04
	6.264117860172453e-07
	1.188494586643683e-05
	1.188467058163463e-05
	8.089137260707066e-08
	1.195832005536300e-05
	1.195804330091517e-05
	8.135699069461818e-08
	1.185361030491735e+00

 25	4.071515547789679e+00
	9.280762181625879e-06
	5.070038196203340e-01
	5.069813099287648e-01
	4.777498563259189e-03
	5.070037465076187e-01
	5.069812368116566e-01
	4.777498684944427e-03
	6.269592330169561e-01
	6.269555064373337e-01
	2.161669058006682e-03
	6.269902682081774e-01
	6.269865414446116e-01
	2.161775910336449e-03
	2.594758144110660e-03
	2.594751003266794e-03
	6.087485077170517e-06
	2.595052186975550e-03
	2.595045044909688e-03
	6.088350865394051e-06
	3.628511667067902e-04
	3.628506373940508e-04
	6.197767419747893e-07
	3.628499490982849e-04
	3.628494198014332e-04
	6.197664005376610e-07
	1.143331882487620e-05
	1.143303870320141e-05
	8.003350777792825e-08
	1.150390478741319e-05
	1.150362317027029e-05
	8.049418791760541e-08
	1.140313149544956e+00

 26	4.306717067640506e+00
	9.023791511010681e-06
	4.872470442752728e-01
	4.872241621636657e-01
	4.722071463205890e-03
	4.872469740120149e-01
	4.872240918959423e-01
	4.722071583479359e-03
	6.025267320947878e-01
	6.025229438551630e-01
	2.136590024371445e-03
	6.025565578495506e-01
	6.025527694229391e-01
	2.136695637032663e-03
	2.493640374970163e-03
	2.493633115973194e-03
	6.016859908089978e-06
	2.493922958999499e-03
	2.493915698760315e-03
	6.017715651691949e-06
	3.487108247481965e-04
	3.487102866773762e-04
	6.125862792517641e-07
	3.487096545702964e-04
	3.487091165156267e-04
	6.125760577596279e-07
	1.098781958611934e-05
	1.098753482857316e-05
	7.910529691222752e-08
	1.105565515382057e-05
	1.105536887605688e-05
	7.956063418585884e-08
	1.095876291134107e+00

 27	4.555505605468011e+00
	8.773936599892971e-06
	4.677583896106053e-01
	4.677351538470472e-01
	4.662285575327675e-03
	4.677583221581300e-01
	4.677350863900374e-01
	4.662285694078353e-03
	5.784258211649025e-01
	5.784219743720389e-01
	2.109538775224936e-03
	5.784544538972871e-01
	5.784506069145465e-01
	2.109643050730053e-03
	2.393894948500373e-03
	2.393887577303399e-03
	5.940680774847860e-06
	2.394166229211720e-03
	2.394158856753331e-03
	5.941525683923430e-06
	3.347623919354275e-04
	3.347618455477958e-04
	6.048303584570804e-07
	3.347612685452124e-04
	3.347607221739810e-04
	6.048202663450194e-07
	1.054836846772170e-05
	1.054807930767753e-05
	7.810409573509370e-08
	1.061349098022992e-05
	1.061320027646472e-05
	7.855367000381743e-08
	1.052042504817668e+00

 28	4.818666050152229e+00
	8.531000423832480e-06
	4.485376670516201e-01
	4.485140990555371e-01
	4.598011799665291e-03
	4.485376023712788e-01
	4.485140343705964e-01
	4.598011916778872e-03
	5.546562698673091e-01
	5.546523680668979e-01
	2.080456896863079e-03
	5.546837259799933e-01
	5.546798239869898e-01
	2.080559734837128e-03
	2.295520912300216e-03
	2.295513435697401e-03
	5.858783178382136e-06
	2.295781045100453e-03
	2.295773567218184e-03
	5.859616439624124e-06
	3.210057351405136e-04
	3.210051809396837e-04
	5.964922316778089e-07
	3.210046578930409e-04
	3.210041037088459e-04
	5.964822786558465e-07
	1.011496127008853e-05
	1.011466797389468e-05
	7.702774344415839e-08
	1.017740804114685e-05
	1.017711317915038e-05
	7.747112213133799e-08
	1.008811369581391e+00

 29	5.097028631688890e+00
	8.294791414194703e-06
	4.295881784739303e-01
	4.295643023224334e-01
	4.529156079273770e-03
	4.295881165265972e-01
	4.295642403704408e-01
	4.529156194633545e-03
	5.312221642940296e-01
	5.312182114717421e-01
	2.049301831452533e-03
	5.312484603919565e-01
	5.312445073745584e-01
	2.049403129416894e-03
	2.198535178262180e-03
	2.198527603890774e-03
	5.771047271403998e-06
	2.198784320473990e-03
	2.198776744806400e-03
	5.771868054458143e-06
	3.074432193821071e-04
	3.074426579341859e-04
	5.875596970692235e-07
	3.074421876256329e-04
	3.074416261945641e-04
	5.875498930528397e-07
	9.687672494093538e-06
	9.687375361150864e-06
	7.587466628376754e-08
	9.747481297420819e-06
	9.747182578192287e-06
	7.631140775408612e-08
	9.661903150476050e-01

 30	5.391471540435052e+00
	8.065123307088401e-06
	4.109167834151681e-01
	4.108926258012429e-01
	4.455665430430771e-03
	4.109167241607274e-01
	4.108925665420878e-01
	4.455665543918685e-03
	5.081319900544715e-01
	5.081279906290399e-01
	2.016049605511854e-03
	5.081571431626327e-01
	5.081531435397901e-01
	2.016149259802884e-03
	2.102972866335020e-03
	2.102965202662098e-03
	5.677405542088030e-06
	2.103211179263768e-03
	2.103203514279380e-03
	5.678213007005627e-06
	2.940797558975632e-04
	2.940791878301678e-04
	5.780258811459619e-07
	2.940787689631174e-04
	2.940782009127731e-04
	5.780162361637201e-07
	9.266656856164030e-06
	9.266356218404167e-06
	7.464397855322438e-08
	9.323866420683341e-06
	9.323564177926440e-06
	7.507363607319126e-08
	9.241947725892791e-01

 31	5.702923697662160e+00
	7.841814996486231e-06
	3.925338745235801e-01
	3.925094646613054e-01
	4.377533528053454e-03
	3.925338179204163e-01
	3.925094080533779e-01
	4.377533639551291e-03
	4.853986018573414e-01
	4.853945606648691e-01
	1.980697357138377e-03
	4.854226296370505e-01
	4.854185882451057e-01
	1.980795263950971e-03
	2.008887178620846e-03
	2.008879434913248e-03
	5.577849931023328e-06
	2.009114829600244e-03
	2.009107084567484e-03
	5.578643236708123e-06
	2.809227845341014e-04
	2.809222105341311e-04
	5.678899633675769e-07
	2.809218417283806e-04
	2.809212677456395e-04
	5.678804874627381e-07
	8.852148733465225e-06
	8.851844954169695e-06
	7.333557615856998e-08
	8.906799235106622e-06
	8.906493834042284e-06
	7.375770239552032e-08
	8.828481200472490e-01

 32	6.032367686157211e+00
	7.624690391412558e-06
	3.744532477943389e-01
	3.744286172679422e-01
	4.294805530570774e-03
	3.744531937988457e-01
	3.744285632676423e-01
	4.294805639961468e-03
	4.630390629789710e-01
	4.630349852479461e-01
	1.943265519112415e-03
	4.630619839361931e-01
	4.630579060038921e-01
	1.943361575651467e-03
	1.916348734964124e-03
	1.916340921240572e-03
	5.472437979047994e-06
	1.916565899329140e-03
	1.916558084268445e-03
	5.473216292583400e-06
	2.679821808384599e-04
	2.679816016485472e-04
	5.571578020638880e-07
	2.679812814352090e-04
	2.679807022626813e-04
	5.571485051821749e-07
	8.444459237127055e-06
	8.444152709047399e-06
	7.195021742786965e-08
	8.496592772560575e-06
	8.496284608037085e-06
	7.236436941414378e-08
	8.421813898029860e-01

 33	6.380842850117579e+00
	7.413578277085978e-06
	3.566918584479216e-01
	3.566670410035532e-01
	4.207581823542485e-03
	3.566918070140470e-01
	3.566669895648355e-01
	4.207581930711526e-03
	4.410743433103715e-01
	4.410702346271970e-01
	1.903799512768062e-03
	4.410961769891058e-01
	4.410920681031275e-01
	1.903893618483669e-03
	1.825444323251646e-03
	1.825436450216696e-03
	5.361297597363377e-06
	1.825651186174570e-03
	1.825643311792327e-03
	5.362060104031744e-06
	2.552700812958397e-04
	2.552694977094542e-04
	5.458424200852000e-07
	2.552692245269083e-04
	2.552686409580399e-04
	5.458333119523877e-07
	8.043970706352605e-06
	8.043661849117672e-06
	7.048958581031680e-08
	8.093631732728844e-06
	8.093321226615279e-06
	7.089533026834149e-08
	8.022327196391910e-01

 34	6.749448574119218e+00
	7.208312179906955e-06
	3.392694591266010e-01
	3.392444904081360e-01
	4.116020381451441e-03
	3.392694102054436e-01
	3.392444414821059e-01
	4.116020486288344e-03
	4.195288718750668e-01
	4.195247381403241e-01
	1.862370816630541e-03
	4.195496390285761e-01
	4.195455050897931e-01
	1.862462874506012e-03
	1.736275047424945e-03
	1.736267126385180e-03
	5.244630076946072e-06
	1.736471805531560e-03
	1.736463883136287e-03
	5.245375990647293e-06
	2.428006243458032e-04
	2.428000372010396e-04
	5.339643111941942e-07
	2.427998093974210e-04
	2.427992222702814e-04
	5.339554011977438e-07
	7.651128550087906e-06
	7.650817806914544e-06
	6.895632943802694e-08
	7.698364274410671e-06
	7.698051872290039e-06
	6.935324833311794e-08
	7.630465389149259e-01

 35	7.139347751502845e+00
	7.008730236184157e-06
	3.222081240869355e-01
	3.221830413197616e-01
	4.020337494640662e-03
	3.222080776264097e-01
	3.221829948543410e-01
	4.020337597040450e-03
	3.984299483687717e-01
	3.984257957448735e-01
	1.819077295332537e-03
	3.984496711016850e-01
	3.984455182728141e-01
	1.819167213188680e-03
	1.648953892018506e-03
	1.648945934782228e-03
	5.122711014781827e-06
	1.649140754740247e-03
	1.649132796142267e-03
	5.123439588618270e-06
	2.305896098064777e-04
	2.305890199786205e-04
	5.215515343690387e-07
	2.305888358099759e-04
	2.305882459998233e-04
	5.215428314239261e-07
	7.266430516764577e-06
	7.266118350521038e-06