Title: simulation of the miller ota designed with the sekv model by c. enz
Date: Fri Jul 25 15:43:10  2025
Plotname: Noise Spectral Density Curves
Flags: real
No. Variables: 30
No. Points: 329
Variables:
	0	frequency	frequency grid=3
	1	inoise_spectrum	voltage-density
	2	onoise_n1a	voltage-density
	3	onoise_n1a_flicker	voltage-density
	4	onoise_n1a_thermal	voltage-density
	5	onoise_n1b	voltage-density
	6	onoise_n1b_flicker	voltage-density
	7	onoise_n1b_thermal	voltage-density
	8	onoise_n2	voltage-density
	9	onoise_n2_flicker	voltage-density
	10	onoise_n2_thermal	voltage-density
	11	onoise_n3a	voltage-density
	12	onoise_n3a_flicker	voltage-density
	13	onoise_n3a_thermal	voltage-density
	14	onoise_n3b	voltage-density
	15	onoise_n3b_flicker	voltage-density
	16	onoise_n3b_thermal	voltage-density
	17	onoise_n4a	voltage-density
	18	onoise_n4a_flicker	voltage-density
	19	onoise_n4a_thermal	voltage-density
	20	onoise_n4b	voltage-density
	21	onoise_n4b_flicker	voltage-density
	22	onoise_n4b_thermal	voltage-density
	23	onoise_n5a	voltage-density
	24	onoise_n5a_flicker	voltage-density
	25	onoise_n5a_thermal	voltage-density
	26	onoise_n5b	voltage-density
	27	onoise_n5b_flicker	voltage-density
	28	onoise_n5b_thermal	voltage-density
	29	onoise_spectrum	voltage-density
Values:
 0	1.000000000000000e+00
	3.409411958820025e-05
	7.902684528631402e+00
	7.902657735323406e+00
	2.057856659851491e-02
	7.904427513665437e+00
	7.904400711318118e+00
	2.058430724607395e-02
	1.081198009351841e-02
	1.081197216912987e-02
	1.309032465259940e-05
	1.015530921106080e-02
	1.015506800411482e-02
	6.999288578068426e-05
	1.015894457192979e-02
	1.015869993205581e-02
	7.050181551667251e-05
	4.723694623595614e+00
	4.723683506019912e+00
	1.024850923539481e-02
	4.770588196918147e+00
	4.770576958740415e+00
	1.035496546534367e-02
	9.128107802177599e-03
	9.128104214141241e-03
	8.093451208508120e-06
	9.150685870523190e-03
	9.150682277170826e-03
	8.109455251596915e-06
	1.303858466284587e+01

 1	1.057767560283176e+00
	3.315006897471377e-05
	7.635906568730555e+00
	7.635879184382055e+00
	2.045013210924930e-02
	7.637590714441166e+00
	7.637563320853941e+00
	2.045583692840729e-02
	1.044698911859063e-02
	1.044698101939513e-02
	1.300862594782307e-05
	9.812498935215875e-03
	9.812252407568518e-03
	6.955604774943738e-05
	9.816011764894878e-03
	9.815761728596117e-03
	7.006180116455514e-05
	4.564232383808225e+00
	4.564221020986706e+00
	1.018454646893678e-02
	4.609542926869270e+00
	4.609531440785328e+00
	1.029033828664599e-02
	8.819960838410463e-03
	8.819957171224272e-03
	8.042938749997457e-06
	8.841776715382717e-03
	8.841773042763254e-03
	8.058842909422077e-06
	1.259842934826732e+01

 2	1.118872211587422e+00
	3.223215902707983e-05
	7.373321601243559e+00
	7.373293631074387e+00
	2.030924229887417e-02
	7.374947832418397e+00
	7.374919852812861e+00
	2.031490781506408e-02
	1.008773477825852e-02
	1.008772650579977e-02
	1.291900426774046e-05
	9.475076695410508e-03
	9.474824894068127e-03
	6.907684603549226e-05
	9.478468920261123e-03
	9.478213535213185e-03
	6.957911509646429e-05
	4.407276437132619e+00
	4.407264831231161e+00
	1.011438072071081e-02
	4.451028830669419e+00
	4.451017098868637e+00
	1.021944369280395e-02
	8.516657080317789e-03
	8.516653334680732e-03
	7.987527695327464e-06
	8.537722745426007e-03
	8.537718994239446e-03
	8.003322284571984e-06
	1.216519202552982e+01

 3	1.183506729519469e+00
	3.133966592245369e-05
	7.114712203523977e+00
	7.114683655282964e+00
	2.015500489834014e-02
	7.116281396996607e+00
	7.116252839124204e+00
	2.016062738808539e-02
	9.733919610504949e-03
	9.733911167074638e-03
	1.282089203019117e-05
	9.142763079821280e-03
	9.142506074558436e-03
	6.855224580718376e-05
	9.146036525958441e-03
	9.145775862929197e-03
	6.905070041397676e-05
	4.252696823225093e+00
	4.252684977458945e+00
	1.003756762412077e-02
	4.294914657817792e+00
	4.294902683550300e+00
	1.014183270137030e-02
	8.217945393223715e-03
	8.217941570173429e-03
	7.926867121305333e-06
	8.238272204804237e-03
	8.238268376089751e-03
	7.942541759936025e-06
	1.173851397074890e+01

 4	1.251875025862529e+00
	3.047188588057943e-05
	6.859884587064665e+00
	6.859855471251804e+00
	1.998653006508508e-02
	6.861397576927166e+00
	6.861368451291433e+00
	1.999210555667641e-02
	9.385278488418219e-03
	9.385269877121715e-03
	1.271372319670857e-05
	8.815309045235831e-03
	8.815046930595366e-03
	6.797922048593820e-05
	8.818465449361291e-03
	8.818199604239416e-03
	6.847350853177037e-05
	4.100377708700061e+00
	4.100365627426037e+00
	9.953664021006317e-03
	4.141083425014258e+00
	4.141071212684133e+00
	1.005705755088623e-02
	7.923601941680073e-03
	7.923598042622611e-03
	7.860607059169139e-06
	7.943200704420054e-03
	7.943196799585781e-03
	7.876150674721771e-06
	1.131807545388373e+01

 5	1.324192791886045e+00
	2.962813460882010e-05
	6.608671957417680e+00
	6.608642287496727e+00
	1.980294596413973e-02
	6.610129540974329e+00
	6.610099861043564e+00
	1.980847024265867e-02
	9.041583217023242e-03
	9.041574441842460e-03
	1.259694318387604e-05
	8.492500234691351e-03
	8.492233131898281e-03
	6.735480474155618e-05
	8.495541256472554e-03
	8.495270352208659e-03
	6.784455255824417e-05
	3.950219395465098e+00
	3.950207084269788e+00
	9.862235721323585e-03
	3.989434444431774e+00
	3.989421999686208e+00
	9.964679541165566e-03
	7.633434070381151e-03
	7.633430097119458e-03
	7.788404622554911e-06
	7.652315112441625e-03
	7.652311133293180e-03
	7.803805464539514e-06
	1.090360128224608e+01

 6	1.400688178817868e+00
	2.880774676255519e-05
	6.360937948592461e+00
	6.360907741186758e+00
	1.960341689687480e-02
	6.362340893070874e+00
	6.362310675474027e+00
	1.960888551427431e-02
	8.702647232001240e-03
	8.702638297852566e-03
	1.247002039527101e-05
	8.174161390866757e-03
	8.173889449591146e-03
	6.667615615260403e-05
	8.177088626896235e-03
	8.176812815290837e-03
	6.716096940425271e-05
	3.802140373572832e+00
	3.802127839353859e+00
	9.762866531598682e-03
	3.839885396947545e+00
	3.839872726758984e+00
	9.864278155531179e-03
	7.347284271097875e-03
	7.347280225858007e-03
	7.709931137436370e-06
	7.365457531048915e-03
	7.365453479815652e-03
	7.725176805440824e-06
	1.049486646688950e+01

 7	1.481602517625661e+00
	2.801007542051946e-05
	6.116580004807325e+00
	6.116549279870735e+00
	1.938716383534450e-02
	6.117929054815468e+00
	6.117898319513133e+00
	1.939257212625801e-02
	8.368330226372032e-03
	8.368321139156873e-03
	1.233245928363973e-05
	7.860160701896386e-03
	7.859884101792116e-03
	6.594062504892869e-05
	7.862975701208558e-03
	7.862695164472732e-03
	6.642009013345733e-05
	3.656079342602638e+00
	3.656066593639581e+00
	9.655168481413028e-03
	3.692374373591628e+00
	3.692361486329469e+00
	9.755461393527821e-03
	7.065034088792819e-03
	7.065029974246835e-03
	7.624880218171750e-06
	7.082509212210338e-03
	7.082505091568276e-03
	7.639957705934972e-06
	1.009170180213592e+01

 8	1.567191080378307e+00
	2.723449157466969e-05
	5.875532552908409e+00
	5.875501333862509e+00
	1.915348705286921e-02
	5.876828438591307e+00
	5.876797209012965e+00
	1.915883015673265e-02
	8.038542490769841e-03
	8.038533257415213e-03
	1.218381474651659e-05
	7.550413878247788e-03
	7.550132830187631e-03
	6.514583148395011e-05
	7.553118159298015e-03
	7.552833111306065e-03
	6.561951749429656e-05
	3.511997107915651e+00
	3.511984153926980e+00
	9.538793093854775e-03
	3.546861790626655e+00
	3.546848696114792e+00
	9.637877158445159e-03
	6.786607785933004e-03
	6.786603605217340e-03
	7.532976667989097e-06
	6.803394231059098e-03
	6.803390044149319e-03
	7.547872425074116e-06
	9.693999099724762e+00

 9	1.657723885589316e+00
	2.648038363417705e-05
	5.637769782246643e+00
	5.637738096074963e+00
	1.890179034932606e-02
	5.639013228056228e+00
	5.638981531194511e+00
	1.890706323925794e-02
	7.713248716655885e-03
	7.713239345142269e-03
	1.202370753625687e-05
	7.244887725246493e-03
	7.244602472170357e-03
	6.428974763095116e-05
	7.247482794173237e-03
	7.247193481323001e-03
	6.475720891539313e-05
	3.369878242272601e+00
	3.369865094454775e+00
	9.413443450164507e-03
	3.403332067661060e+00
	3.403318777217408e+00
	9.511225447284777e-03
	6.511975553381147e-03
	6.511971310109233e-03
	7.433986006660457e-06
	6.528082704726467e-03
	6.528078455167756e-03
	7.448686018967569e-06
	9.301715775308287e+00

 10	1.753486550082957e+00
	2.574715694315376e-05
	5.403307828782830e+00
	5.403275706072901e+00
	1.863160616288478e-02
	5.404499562729487e+00
	5.404467429182246e+00
	1.863680368157139e-02
	7.392470984420619e-03
	7.392461483794409e-03
	1.185184023394768e-05
	6.943602950101255e-03
	6.943313767394656e-03
	6.337078319445838e-05
	6.946090319998668e-03
	6.945797021595374e-03
	6.383156253797469e-05
	3.229732391337092e+00
	3.229719062382005e+00
	9.278886695847078e-03
	3.261794946112532e+00
	3.261781472566668e+00
	9.375270986779108e-03
	6.241156033121663e-03
	6.241151731389554e-03
	7.327724346809180e-06
	6.256593321307679e-03
	6.256589013202159e-03
	7.342214236618593e-06
	8.914878451985469e+00

 11	1.854781190070612e+00
	2.503423331173405e-05
	5.172206150547295e+00
	5.172173625471868e+00
	1.834262065413449e-02
	5.173346913754796e+00
	5.173314377706309e+00
	1.834773755671270e-02
	7.076290645135343e-03
	7.076281025503284e-03
	1.166801320575514e-05
	6.646635929860215e-03
	6.646343125185070e-03
	6.238787072762359e-05
	6.649017140690629e-03
	6.648720168775279e-03
	6.284150315361226e-05
	3.091595095822852e+00
	3.091581599910044e+00
	9.134966533033778e-03
	3.122286319516973e+00
	3.122272677202254e+00
	9.229855855517749e-03
	5.974217906939270e-03
	5.974213551323134e-03
	7.214068259357906e-06
	5.988994932470038e-03
	5.988990570400656e-03
	7.228333404880360e-06
	8.533585229655916e+00

 12	1.961927374280117e+00
	2.434105056013940e-05
	4.944567886176208e+00
	4.944534996406156e+00
	1.803469766400821e-02
	4.945658442515727e+00
	4.945625541649578e+00
	1.803972866763164e-02
	6.764848811001009e-03
	6.764839083504439e-03
	1.147213984287768e-05
	6.354119172669315e-03
	6.353823085179732e-03
	6.134054711920208e-05
	6.356395811349226e-03
	6.356095509903230e-03
	6.178656428370339e-05
	2.955528005790415e+00
	2.955514358550932e+00
	8.981615151974641e-03
	2.984868449952619e+00
	2.984854654669654e+00
	9.074911539378028e-03
	5.711280310476845e-03
	5.711275906021298e-03
	7.092964196046509e-06
	5.725406968534949e-03
	5.725402557553797e-03
	7.106989869606074e-06
	8.158006276557497e+00

 13	2.075263132145056e+00
	2.366706207536859e-05
	4.720539010356250e+00
	4.720505796899508e+00
	1.770790030738717e-02
	4.721580155894117e+00
	4.721546931232077e+00
	1.771284014681611e-02
	6.458345199791808e-03
	6.458335376559028e-03
	1.126426029752287e-05
	6.066240233068649e-03
	6.065941231960852e-03
	6.022902703879549e-05
	6.068413953176022e-03
	6.068110696650472e-03
	6.066696215874755e-05
	2.821618375814571e+00
	2.821604594264135e+00
	8.818863985055412e-03
	2.849629458195861e+00
	2.849615527144957e+00
	8.910469797249092e-03
	5.452511857638049e-03
	5.452507409834585e-03
	6.964436982075396e-06
	5.465998460467416e-03
	5.465994006074121e-03
	6.978208505085648e-06
	7.788382435830067e+00

 14	2.195146020234698e+00
	2.301173638016315e-05
	4.500306141639460e+00
	4.500272648602830e+00
	1.736250889450275e-02
	4.501298713601424e+00
	4.501265209265174e+00
	1.736735238269352e-02
	6.157035135547786e-03
	6.157025229623602e-03
	1.104455288294631e-05
	5.783238895591610e-03
	5.782937377959390e-03
	5.905426389209044e-05
	5.785311436075517e-03
	5.785005627216120e-03
	5.948365711680028e-05
	2.689977754627685e+00
	2.689963857067853e+00
	8.646852631989275e-03
	2.716682000356314e+00
	2.716667952037561e+00
	8.736671678933989e-03
	5.198128108386290e-03
	5.198123623141383e-03
	6.828596864491315e-06
	5.210985501411676e-03
	5.210981009521464e-03
	6.842099776369063e-06
	7.425021608633028e+00

 15	2.321954250288979e+00
	2.237455671390803e-05
	4.284092919300855e+00
	4.284059193574522e+00
	1.699903389450941e-02
	4.285037804237252e+00
	4.285004067132795e+00
	1.700377598682007e-02
	5.861224591516329e-03
	5.861214616768749e-03
	1.081334231974905e-05
	5.505402519549569e-03
	5.505098907544041e-03
	5.781799391319794e-05
	5.507375721784569e-03
	5.507067788750978e-03
	5.823839801641517e-05
	2.560739819431891e+00
	2.560725825319157e+00
	8.465835315917526e-03
	2.586161080689567e+00
	2.586146934770520e+00
	8.553774048312916e-03
	4.948387383694786e-03
	4.948382867287643e-03
	6.685644610686279e-06
	4.960627051289677e-03
	4.960622528191060e-03
	6.698864847847072e-06
	7.068292776335742e+00

 16	2.456087882417324e+00
	2.175502062513727e-05
	4.072154944288503e+00
	4.072121035156586e+00
	1.661822278560555e-02
	4.073053085123624e+00
	4.073019164551710e+00
	1.662285864591252e-02
	5.571263268573650e-03
	5.571253239578703e-03
	1.057110409332662e-05
	5.233059538628533e-03
	5.232754275951976e-03
	5.652275946366620e-05
	5.234935361153447e-03
	5.234625753963196e-03
	5.693374570506765e-05
	2.434057351921796e+00
	2.434043281705990e+00
	8.276184294897243e-03
	2.458220997599982e+00
	2.458206774752309e+00
	8.362153030267725e-03
	4.703584921933441e-03
	4.703580380963850e-03
	6.535874202509567e-06
	4.715219078733958e-03
	4.715214531036501e-03
	6.548798282690583e-06
	6.718617653613817e+00

 17	2.597970087225644e+00
	2.115263957532314e-05
	3.864773369749039e+00
	3.864739328433128e+00
	1.622105987904981e-02
	3.865625771416875e+00
	3.865591718616372e+00
	1.622558494581539e-02
	5.287535826083228e-03
	5.287525757989957e-03
	1.031846434191983e-05
	4.966571225106105e-03
	4.966264772902440e-03
	5.517190843389934e-05
	4.968351755425648e-03
	4.968040941786142e-03
	5.557307241622126e-05
	2.310098407114422e+00
	2.310084282049303e+00
	8.078389774258154e-03
	2.333031474437460e+00
	2.333017196145479e+00
	8.162303922128366e-03
	4.464045475434873e-03
	4.464040916762070e-03
	6.379672767052085e-06
	4.475087139341518e-03
	4.475082573914622e-03
	6.392287973498128e-06
	6.376460113489538e+00

 18	2.748048480853339e+00
	2.056693855363648e-05
	3.662247321520412e+00
	3.662213200666569e+00
	1.580875855208831e-02
	3.663055054928685e+00
	3.663020922563417e+00
	1.581316860226150e-02
	5.010451511996533e-03
	5.010441420375270e-03
	1.005619491587363e-05
	4.706321950475480e-03
	4.706014782711928e-03
	5.376956782540020e-05
	4.708009413385707e-03
	4.707697874010148e-03
	5.416053515948271e-05
	2.189041782813241e+00
	2.189027624743642e+00
	7.873056038455804e-03
	2.210773083985478e+00
	2.210758772330990e+00
	7.954837285345745e-03
	4.230114555607651e-03
	4.230109986281631e-03
	6.217517521898042e-06
	4.240577599132126e-03
	4.240573023036228e-03
	6.229812081507073e-06
	6.042313681944168e+00

 19	2.906796537132124e+00
	1.999745570237432e-05
	3.464885419043210e+00
	3.464851272166137e+00
	1.538274575426628e-02
	3.465649623167308e+00
	3.465615464770033e+00
	1.538703696286144e-02
	4.740432562215282e-03
	4.740422462893258e-03
	9.785203521894501e-06
	4.452708289981878e-03
	4.452400888444932e-03
	5.232059105282126e-05
	4.454305052004246e-03
	4.453993275536382e-03
	5.270102263947734e-05
	2.071071951364743e+00
	2.071057782495927e+00
	7.660893734926332e-03
	2.091632129903670e+00
	2.091617807332820e+00
	7.740471149195169e-03
	4.002148638989166e-03
	4.002144066176240e-03
	6.049969681542517e-06
	4.012047816376178e-03
	4.012043236788207e-03
	6.061932930961692e-06
	5.716687548318517e+00

 20	3.074715081321830e+00
	1.944374195275951e-05
	3.272996742465700e+00
	3.272962623366245e+00
	1.494463912665982e-02
	3.273718624450362e+00
	3.273684493840078e+00
	1.494880811995244e-02
	4.477901842287137e-03
	4.477891751176198e-03
	9.506519168289858e-06
	4.206127415384509e-03
	4.205820264435924e-03
	5.083048012072166e-05
	4.207635985051981e-03
	4.207324462747459e-03
	5.120007686674052e-05
	1.956373660389368e+00
	1.956359503045336e+00
	7.442708479037971e-03
	1.975795193858571e+00
	1.975780882937525e+00
	7.520019497361954e-03
	3.780504733633578e-03
	3.780500164538371e-03
	5.877665458512730e-06
	3.789855682175457e-03
	3.789851106310714e-03
	5.889287992439996e-06
	5.400091661994233e+00

 21	3.252333870135678e+00
	1.890536067082509e-05
	3.086881643316602e+00
	3.086847605490394e+00
	1.449621754874228e-02
	3.087562476550832e+00
	3.087528427241215e+00
	1.450026144924844e-02
	4.223270275100285e-03
	4.223260208021994e-03
	9.221273429440807e-06
	3.966965286562021e-03
	3.966658867814975e-03
	4.930528544604750e-05
	3.968388310483036e-03
	3.968077530809797e-03
	4.966379225179093e-05
	1.845126440010882e+00
	1.845112316388986e+00
	7.219386185882237e-03
	1.863443588224579e+00
	1.863429311391487e+00
	7.294377447366818e-03
	3.565529764829499e-03
	3.565525206615756e-03
	5.701304479615907e-06
	3.574348979926726e-03
	3.574344414959569e-03
	5.712578276195813e-06
	5.093021570980881e+00

 22	3.440213263039755e+00
	1.838188731310424e-05
	2.906822817366714e+00
	2.906788913422259e+00
	1.403938635423059e-02
	2.907463937589778e+00
	2.907430022207082e+00
	1.404330281598298e-02
	3.976924627310358e-03
	3.976914599823887e-03
	8.930678319144908e-06
	3.735585179892888e-03
	3.735279966973331e-03
	4.775148754845430e-05
	3.736925434711369e-03
	3.736615878036433e-03
	4.809869643520389e-05
	1.737499266808169e+00
	1.737485198737664e+00
	6.991875747117883e-03
	1.754747967063164e+00
	1.754733746384080e+00
	7.064503747465834e-03
	3.357550263682754e-03
	3.357545723395416e-03
	5.521636105528344e-06
	3.365855048399556e-03
	3.365850501385363e-03
	5.532554624696115e-06
	4.795943693089177e+00

 23	3.638945990099385e+00
	1.787290909185423e-05
	2.733077046090324e+00
	2.733043327194310e+00
	1.357613879069306e-02
	2.733679845676268e+00
	2.733646115404445e+00
	1.357992602376558e-02
	3.739216210526338e-03
	3.739206237764413e-03
	8.636001774568509e-06
	3.512317075664634e-03
	3.512013529217645e-03
	4.617586596474258e-05
	3.513577456221031e-03
	3.513269589745785e-03
	4.651161824890239e-05
	1.633645627414784e+00
	1.633631636126663e+00
	6.761169837138165e-03
	1.649863340717245e+00
	1.649849197653472e+00
	6.831401383442041e-03
	3.156862827994677e-03
	3.156858312485596e-03
	5.339444273078467e-06
	3.164671219019912e-03
	3.164666696820688e-03
	5.350002524931119e-06
	4.509281690225066e+00

 24	3.849159021949672e+00
	1.737802464955036e-05
	2.565867968472515e+00
	2.565834483838455e+00
	1.310851550413646e-02
	2.566433889120456e+00
	2.566400393189621e+00
	1.311217228786666e-02
	3.510450992173412e-03
	3.510441088691070e-03
	8.338541883865379e-06
	3.297448369372299e-03
	3.297146932458544e-03
	4.458536144574301e-05
	3.298631873537139e-03
	3.298326146628278e-03
	4.490954891105309e-05
	1.533699197993735e+00
	1.533685303908542e+00
	6.528284735641010e-03
	1.548924712394783e+00
	1.548910667588386e+00
	6.596097191582896e-03
	2.963725773274634e-03
	2.963721289134093e-03
	5.155531560767251e-06
	2.971056446231745e-03
	2.971051955447536e-03
	5.165726142425745e-06
	4.233404542646984e+00

 25	4.071515547789679e+00
	1.689684374239340e-05
	2.405380172773274e+00
	2.405346969207052e+00
	1.263856389129854e-02
	2.405910696894602e+00
	2.405877482126432e+00
	1.264208957617078e-02
	3.290881512258414e-03
	3.290871691898594e-03
	8.039601029644147e-06
	3.091216279080070e-03
	3.090917373084653e-03
	4.298693770320654e-05
	3.092325989864929e-03
	3.092022829905075e-03
	4.329950276769564e-05
	1.437770312697193e+00
	1.437756535236459e+00
	6.294240084314036e-03
	1.452043511569784e+00
	1.452029584652976e+00
	6.359621405088146e-03
	2.778352308403531e-03
	2.778347861899389e-03
	4.970703202259822e-06
	2.785224466280739e-03
	2.785220013188689e-03
	4.980532303119410e-06
	3.968616801013178e+00

 26	4.306717067640506e+00
	1.642898693258067e-05
	2.251754806400477e+00
	2.251721927913207e+00
	1.216829907911368e-02
	2.252251447537768e+00
	2.252218557958224e+00
	1.217169357775711e-02
	3.080700877134243e-03
	3.080691152913280e-03
	7.740461067505380e-06
	2.893802203506113e-03
	2.893506224653349e-03
	4.138744869117547e-05
	2.894841269148357e-03
	2.894541078001231e-03
	4.168838360909474e-05
	1.345943339552671e+00
	1.345929696978269e+00
	6.060039453882097e-03
	1.359304943818076e+00
	1.359291153250832e+00
	6.122988019257914e-03
	2.600905464823495e-03
	2.600901061849336e-03
	4.785751739837206e-06
	2.607338713861513e-03
	2.607334304363941e-03
	4.795215116471406e-06
	3.715151343148425e+00

 27	4.555505605468011e+00
	1.597408528909832e-05
	2.105086801243628e+00
	2.105054288738641e+00
	1.169966808008113e-02
	2.105551093877590e+00
	2.105518570403802e+00
	1.170293184826829e-02
	2.880038963450338e-03
	2.880029347465389e-03
	7.442360524815477e-06
	2.705328155948661e-03
	2.705035472484249e-03
	3.979351668933977e-05
	2.706299768711528e-03
	2.706002919864029e-03
	4.008286186662056e-05
	1.258275021965522e+00
	1.258261531249789e+00
	5.826652492813385e-03
	1.270766315855359e+00
	1.270752678794131e+00
	5.887176754768738e-03
	2.431494891697694e-03
	2.431490537730914e-03
	4.601442926914722e-06
	2.437509109350391e-03
	2.437504748932807e-03
	4.610541850102838e-06
	3.473164796149983e+00

 28	4.818666050152229e+00
	1.553178009679881e-05
	1.965423711952456e+00
	1.965391602989614e+00
	1.123451836469315e-02
	1.965857201052633e+00
	1.965825081257136e+00
	1.123765237357147e-02
	2.688960828842995e-03
	2.688951332202327e-03
	7.146474609234021e-06
	2.525855270856145e-03
	2.525566220925499e-03
	3.821142540997277e-05
	2.526762645285059e-03
	2.526469481695391e-03
	3.848926694244755e-05
	1.174793784333235e+00
	1.174780461061175e+00
	5.594999275803643e-03
	1.186456334258098e+00
	1.186442866456955e+00
	5.653117243577928e-03
	2.270175514130369e-03
	2.270171214200610e-03
	4.418503367767293e-06
	2.275790713706594e-03
	2.275786407406092e-03
	4.427240545080650e-06
	3.242735619681247e+00

 29	5.097028631688890e+00
	1.510172257353409e-05
	1.832766074829276e+00
	1.832734403466370e+00
	1.077457172610611e-02
	1.833170305483907e+00
	1.833138623435981e+00
	1.077757742713870e-02
	2.507467203039669e-03
	2.507457835815746e-03
	6.853898583709801e-06
	2.355384264414874e-03
	2.355099154635401e-03
	3.664703110508286e-05
	2.356230615748850e-03
	2.355941448398484e-03
	3.691349767035159e-05
	1.095499946581521e+00
	1.095486804884997e+00
	5.365937287895876e-03
	1.106375322129345e+00
	1.106362037873447e+00
	5.421675877841006e-03
	2.116947947794959e-03
	2.116943706462870e-03
	4.237610238666075e-06
	2.122184144125945e-03
	2.122179896509930e-03
	4.245989716728764e-06
	3.023864698116250e+00

 30	5.391471540435052e+00
	1.468357359512159e-05
	1.707069122122268e+00
	1.707037918830231e+00
	1.032140392792971e-02
	1.707445629546226e+00
	1.707414415727085e+00
	1.032428321215856e-02
	2.335496833339354e-03
	2.335487604543762e-03
	6.565634820197481e-06
	2.193857636880164e-03
	2.193576741578077e-03
	3.510569334343254e-05
	2.194646160241653e-03
	2.194361267361280e-03
	3.536095258939745e-05
	1.020366748868387e+00
	1.020353801390935e+00
	5.140251288700487e-03
	1.030496253975327e+00
	1.030483166045369e+00
	5.193645568846599e-03
	1.971760479135444e-03
	1.971756300481323e-03
	4.059383283484747e-06
	1.976637559140179e-03
	1.976633374294995e-03
	4.067410334406427e-06
	2.816478168950934e+00

 31	5.702923697662160e+00
	1.427700342792600e-05
	1.588245634621656e+00
	1.588214926267876e+00
	9.876430259591127e-03
	1.588595934793550e+00
	1.588565216079646e+00
	9.879185412870866e-03
	2.172930387445547e-03
	2.172921305024051e-03
	6.282583611263468e-06
	2.041163337691361e-03
	2.040886898751550e-03
	3.359222588068534e-05
	2.041897188578403e-03
	2.041616815495670e-03
	3.383648045685448e-05
	9.493420566889631e-01
	9.493293145788712e-01
	4.918646118697797e-03
	9.587664777373572e-01
	9.587535974025614e-01
	4.969738478594526e-03
	1.834512360375862e-03
	1.834508247997422e-03
	3.884379132723538e-06
	1.839049961776575e-03
	1.839045843305264e-03
	3.892060129298643e-06
	2.620432129292305e+00

 32	6.032367686157211e+00
	1.388169146884600e-05
	1.476169685764562e+00
	1.476139495656759e+00
	9.440896803602251e-03
	1.476495266889594e+00
	1.476465066596510e+00
	9.443530459397729e-03
	2.019595576000375e-03
	2.019586646845894e-03
	6.005537615111011e-06
	1.897139576252314e-03
	1.896867803513484e-03
	3.211086695719528e-05
	1.897821852743687e-03
	1.897546212283962e-03
	3.234435033001648e-05
	8.823505988635834e-01
	8.823380717920976e-01
	4.701742350174495e-03
	8.911099749970780e-01
	8.910973120336028e-01
	4.750581625556437e-03
	1.705058134272580e-03
	1.705054091290821e-03
	3.713087868994094e-06
	1.709275535007357e-03
	1.709271486035546e-03
	3.720430153109602e-06
	2.435518813240944e+00

 33	6.380842850117579e+00
	1.349732599250099e-05
	1.370681021650227e+00
	1.370651369632221e+00
	9.015876963733981e-03
	1.370983336589097e+00
	1.370953674567349e+00
	9.018392054949411e-03
	1.875273145124070e-03
	1.875264375104997e-03
	5.735179647140132e-06
	1.761580449934522e-03
	1.761313522051458e-03
	3.066526748944353e-05
	1.762214176901250e-03
	1.761943450262161e-03
	3.088823967177631e-05
	8.192965856292375e-01
	8.192842818302987e-01
	4.490074558189869e-03
	8.274300050584905e-01
	8.274175677895975e-01
	4.536715137681716e-03
	1.583212693375357e-03
	1.583208722447393e-03
	3.545931661591002e-06
	1.587128713524689e-03
	1.587124736713425e-03
	3.552943409934203e-06
	2.261473818456837e+00

 34	6.749448574119218e+00
	1.312360390541829e-05
	1.271589830329241e+00
	1.271560732919392e+00
	8.602272621011080e-03
	1.271870290078938e+00
	1.271841182852457e+00
	8.604672332141627e-03
	1.739703401525760e-03
	1.739694795526904e-03
	5.472083415327194e-06
	1.634242072376840e-03
	1.633980138066793e-03
	2.925849500186931e-05
	1.634830187880134e-03
	1.634564525895692e-03
	2.947123831104579e-05
	7.600665594114550e-01
	7.600544857391417e-01
	4.284091896282738e-03
	7.676119840203079e-01
	7.675997793744278e-01
	4.328592834084564e-03
	1.468756788915436e-03
	1.468752892253025e-03
	3.383265221160320e-06
	1.472389706254810e-03
	1.472385803819132e-03
	3.389955311825642e-06
	2.097983974984595e+00

 35	7.139347751502845e+00
	1.276023050702720e-05
	1.178681676267633e+00
	1.178653146830709e+00
	8.200819175160853e-03
	1.178941644530538e+00
	1.178913105468603e+00
	8.203106895850597e-03
	1.612592963586298e-03
	1.612584525559708e-03
	5.216716727194831e-06
	1.514848914109656e-03
	1.514592093699725e-03
	2.789305077411424e-05
	1.515394258062387e-03
	1.515133782772397e-03
	2.809586571468048e-05
	7.045323443250560e-01
	7.045205063249002e-01
	4.084160607206740e-03
	7.115264635572910e-01
	7.115144971401133e-01
	4.126584761859516e-03
	1.361442730471476e-03
	1.361438909864041e-03
	3.225377782496439e-06
	1.364810210121920e-03
	1.364806383853900e-03
	3.231755665513075e-06
	1.944695486598410e+00

 36	7.551770453120341e+00
	1.240691925727122e-05
	1.091722407467757e+00
	1.091694456411428e+00
	7.812093685546357e-03
	1.091963196303046e+00
	1.091935235816837e+00
	7.814272966417273e-03
	1.493621475021716e-03
	1.493613208044792e-03
	4.969446668406645e-06
	1.403100108109616e-03
	1.402848495305764e-03
	2.657089753037679e-05
	1.403605413189870e-03
	1.403350219634125e-03
	2.676409887816795e-05
	6.525539793293439e-01
	6.525423813198633e-01
	3.890568077266618e-03
	6.590320931937611e-01
	6.590203693706500e-01
	3.930981292532076e-03
	1.261000054042826e-03
	1.260996310883762e-03
	3.072496306349876e-06
	1.264119092141241e-03
	1.264115343436339e-03
	3.078571880540687e-06
	1.801222027032444e+00

 37	7.988017808015676e+00
	1.206339155065536e-05
	1.010462879061518e+00
	1.010435514049370e+00
	7.436525336296153e-03
	1.010685745578376e+00
	1.010658371334064e+00
	7.438599847696490e-03
	1.382448067445683e-03
	1.382439973784174e-03
	4.730546259815622e-06
	1.298675519580837e-03
	1.298429183385649e-03
	2.529349503395484e-05
	1.299143404314254e-03
	1.298893562477584e-03
	2.547740817898414e-05
	6.039825416811802e-01
	6.039711868422658e-01
	3.703528048147644e-03
	6.099784717859511e-01
	6.099669937712928e-01
	3.741998388025943e-03
	1.167140978127606e-03
	1.167137313442805e-03
	2.924789595329523e-06
	1.170027858992526e-03
	1.170024188878153e-03
	2.930573093308744e-06
	1.667152533409045e+00

 38	8.449466108283303e+00
	1.172937649655024e-05
	9.346433746196992e-01
	9.346166007936063e-01
	7.074407501979393e-03
	9.348495186456692e-01
	9.348227357868643e-01
	7.076380996097877e-03
	1.278717409356723e-03
	1.278709490530486e-03
	4.500202132642177e-06
	1.201241427350907e-03
	1.201000414065577e-03
	2.406184112564861e-05
	1.201674391223770e-03
	1.201429948066530e-03
	2.423679871339315e-05
	5.586627897015241e-01
	5.586516801667106e-01
	3.523186625846414e-03
	5.642088165240952e-01
	5.641975864745689e-01
	3.559783672011472e-03
	1.079565510635347e-03
	1.079561925112972e-03
	2.782373039291360e-06
	1.082235776564485e-03
	1.082232185729825e-03
	2.787874921845878e-06
	1.542058500929727e+00

 39	8.937571151054209e+00
	1.140461070557981e-05
	8.639976421238589e-01
	8.639714623295782e-01
	6.725910769398006e-03
	8.641882047633623e-01
	8.641620161367812e-01
	6.727787046010682e-03
	1.182065227922409e-03
	1.182057484772126e-03
	4.278522811852545e-06
	1.110455710147770e-03
	1.110220045403091e-03
	2.287651601415093e-05
	1.110856130574562e-03
	1.110617112092523e-03
	2.304285490888024e-05